 Entering Gaussian System, Link 0=g16
 Input=g16.gjf
 Output=g16.log
 Initial command:
 /shared/ucl/apps/gaussian/g16-c01/pgi-18.10/g16/l1.exe "/tmpdir/job/2247398.undefined/ucaqkin/gaussian.73ba5664/Gau-42508.inp" -scrdir="/tmpdir/job/2247398.undefined/ucaqkin/gaussian.73ba5664/"
 Default is to use a total of   4 processors:
                                4 via shared-memory
                                1 via Linda
 Entering Link 1 = /shared/ucl/apps/gaussian/g16-c01/pgi-18.10/g16/l1.exe PID=     42509.
  
 Copyright (c) 1988-2019, Gaussian, Inc.  All Rights Reserved.
  
 This is part of the Gaussian(R) 16 program.  It is based on
 the Gaussian(R) 09 system (copyright 2009, Gaussian, Inc.),
 the Gaussian(R) 03 system (copyright 2003, Gaussian, Inc.),
 the Gaussian(R) 98 system (copyright 1998, Gaussian, Inc.),
 the Gaussian(R) 94 system (copyright 1995, Gaussian, Inc.),
 the Gaussian 92(TM) system (copyright 1992, Gaussian, Inc.),
 the Gaussian 90(TM) system (copyright 1990, Gaussian, Inc.),
 the Gaussian 88(TM) system (copyright 1988, Gaussian, Inc.),
 the Gaussian 86(TM) system (copyright 1986, Carnegie Mellon
 University), and the Gaussian 82(TM) system (copyright 1983,
 Carnegie Mellon University). Gaussian is a federally registered
 trademark of Gaussian, Inc.
  
 This software contains proprietary and confidential information,
 including trade secrets, belonging to Gaussian, Inc.
  
 This software is provided under written license and may be
 used, copied, transmitted, or stored only in accord with that
 written license.
  
 The following legend is applicable only to US Government
 contracts under FAR:
  
                    RESTRICTED RIGHTS LEGEND
  
 Use, reproduction and disclosure by the US Government is
 subject to restrictions as set forth in subparagraphs (a)
 and (c) of the Commercial Computer Software - Restricted
 Rights clause in FAR 52.227-19.
  
 Gaussian, Inc.
 340 Quinnipiac St., Bldg. 40, Wallingford CT 06492
  
  
 ---------------------------------------------------------------
 Warning -- This program may not be used in any manner that
 competes with the business of Gaussian, Inc. or will provide
 assistance to any competitor of Gaussian, Inc.  The licensee
 of this program is prohibited from giving any competitor of
 Gaussian, Inc. access to this program.  By using this program,
 the user acknowledges that Gaussian, Inc. is engaged in the
 business of creating and licensing software in the field of
 computational chemistry and represents and warrants to the
 licensee that it is not a competitor of Gaussian, Inc. and that
 it will not use this program in any manner prohibited above.
 ---------------------------------------------------------------
  

 Cite this work as:
 Gaussian 16, Revision C.01,
 M. J. Frisch, G. W. Trucks, H. B. Schlegel, G. E. Scuseria, 
 M. A. Robb, J. R. Cheeseman, G. Scalmani, V. Barone, 
 G. A. Petersson, H. Nakatsuji, X. Li, M. Caricato, A. V. Marenich, 
 J. Bloino, B. G. Janesko, R. Gomperts, B. Mennucci, H. P. Hratchian, 
 J. V. Ortiz, A. F. Izmaylov, J. L. Sonnenberg, D. Williams-Young, 
 F. Ding, F. Lipparini, F. Egidi, J. Goings, B. Peng, A. Petrone, 
 T. Henderson, D. Ranasinghe, V. G. Zakrzewski, J. Gao, N. Rega, 
 G. Zheng, W. Liang, M. Hada, M. Ehara, K. Toyota, R. Fukuda, 
 J. Hasegawa, M. Ishida, T. Nakajima, Y. Honda, O. Kitao, H. Nakai, 
 T. Vreven, K. Throssell, J. A. Montgomery, Jr., J. E. Peralta, 
 F. Ogliaro, M. J. Bearpark, J. J. Heyd, E. N. Brothers, K. N. Kudin, 
 V. N. Staroverov, T. A. Keith, R. Kobayashi, J. Normand, 
 K. Raghavachari, A. P. Rendell, J. C. Burant, S. S. Iyengar, 
 J. Tomasi, M. Cossi, J. M. Millam, M. Klene, C. Adamo, R. Cammi, 
 J. W. Ochterski, R. L. Martin, K. Morokuma, O. Farkas, 
 J. B. Foresman, and D. J. Fox, Gaussian, Inc., Wallingford CT, 2019.
 
 ******************************************
 Gaussian 16:  ES64L-G16RevC.01  3-Jul-2019
                24-Apr-2025 
 ******************************************
 %Chk=G7.chk
 %NProcShared=4
 Will use up to    4 processors via shared memory.
 %Mem=4GB
 --------------------------
 #P B3LYP/6-31G(d) Opt Freq
 --------------------------
 1/18=20,19=15,26=3,38=1/1,3;
 2/9=110,12=2,17=6,18=5,40=1/2;
 3/5=1,6=6,7=1,11=2,25=1,30=1,71=1,74=-5/1,2,3;
 4//1;
 5/5=2,38=5/2;
 6/7=2,8=2,9=2,10=2,28=1/1;
 7//1,2,3,16;
 1/18=20,19=15,26=3/3(2);
 2/9=110/2;
 99//99;
 2/9=110/2;
 3/5=1,6=6,7=1,11=2,25=1,30=1,71=1,74=-5/1,2,3;
 4/5=5,16=3,69=1/1;
 5/5=2,38=5/2;
 7//1,2,3,16;
 1/18=20,19=15,26=3/3(-5);
 2/9=110/2;
 6/7=2,8=2,9=2,10=2,19=2,28=1/1;
 99/9=1/99;
 Leave Link    1 at Thu Apr 24 16:44:14 2025, MaxMem=   536870912 cpu:               0.2 elap:               0.1
 (Enter /shared/ucl/apps/gaussian/g16-c01/pgi-18.10/g16/l101.exe)
 --
 G7
 --
 Symbolic Z-matrix:
 Charge =  0 Multiplicity = 1
 C                    -1.98354   2.21052  -1.35636 
 C                    -1.85963   1.35224  -0.13113 
 C                    -0.69327   0.44182   0.0149 
 C                     0.44086   1.0441    0.46304 
 C                     1.78142   0.4346    0.86777 
 C                     2.75326   1.60071   1.18712 
 C                     1.61871  -0.35297   2.18933 
 C                     2.45419  -0.42336  -0.25383 
 C                     1.51578  -1.08231  -1.26596 
 C                     0.40544  -1.87707  -0.5819 
 C                    -0.89999  -1.05437  -0.34841 
 C                    -1.72286  -1.73912   0.76547 
 C                    -1.73268  -1.14668  -1.65843 
 C                    -2.73096   1.49407   0.8701 
 H                    -1.79144   3.27145  -1.09096 
 H                    -1.24856   1.90105  -2.12934 
 H                    -3.00414   2.11799  -1.78467 
 H                     0.3741    2.11979   0.60973 
 H                     2.88532   2.25838   0.29996 
 H                     2.36898   2.22973   2.02027 
 H                     3.75272   1.21228   1.48241 
 H                     2.59216  -0.77771   2.51696 
 H                     1.2495    0.31647   2.99677 
 H                     0.89828  -1.17881   2.11794 
 H                     3.09066  -1.21123   0.20674 
 H                     3.15109   0.20195  -0.85599 
 H                     2.12161  -1.77603  -1.8898 
 H                     1.10045  -0.31794  -1.95775 
 H                     0.1805   -2.76051  -1.22053 
 H                     0.78581  -2.3458    0.34572 
 H                    -1.2618   -1.58816   1.76111 
 H                    -2.75561  -1.33322   0.80905 
 H                    -1.803    -2.83225   0.5791 
 H                    -1.20888  -0.64033  -2.49649 
 H                    -2.73519  -0.68223  -1.54349 
 H                    -1.9099   -2.20501  -1.94907 
 H                    -3.55954   2.18674   0.7897 
 H                    -2.61983   0.93123   1.78842 
 
 ITRead=  0  0  0  0  0  0  0  0  0  0  0  0  0  0  0  0  0  0  0  0
 ITRead=  0  0  0  0  0  0  0  0  0  0  0  0  0  0  0  0  0  0
 MicOpt= -1 -1 -1 -1 -1 -1 -1 -1 -1 -1 -1 -1 -1 -1 -1 -1 -1 -1 -1 -1
 MicOpt= -1 -1 -1 -1 -1 -1 -1 -1 -1 -1 -1 -1 -1 -1 -1 -1 -1 -1
 NAtoms=     38 NQM=       38 NQMF=       0 NMMI=      0 NMMIF=      0
                NMic=       0 NMicF=      0.
                    Isotopes and Nuclear Properties:
 (Nuclear quadrupole moments (NQMom) in fm**2, nuclear magnetic moments (NMagM)
  in nuclear magnetons)

  Atom         1           2           3           4           5           6           7           8           9          10
 IAtWgt=          12          12          12          12          12          12          12          12          12          12
 AtmWgt=  12.0000000  12.0000000  12.0000000  12.0000000  12.0000000  12.0000000  12.0000000  12.0000000  12.0000000  12.0000000
 NucSpn=           0           0           0           0           0           0           0           0           0           0
 AtZEff=  -0.0000000  -0.0000000  -0.0000000  -0.0000000  -0.0000000  -0.0000000  -0.0000000  -0.0000000  -0.0000000  -0.0000000
 NQMom=    0.0000000   0.0000000   0.0000000   0.0000000   0.0000000   0.0000000   0.0000000   0.0000000   0.0000000   0.0000000
 NMagM=    0.0000000   0.0000000   0.0000000   0.0000000   0.0000000   0.0000000   0.0000000   0.0000000   0.0000000   0.0000000
 AtZNuc=   6.0000000   6.0000000   6.0000000   6.0000000   6.0000000   6.0000000   6.0000000   6.0000000   6.0000000   6.0000000

  Atom        11          12          13          14          15          16          17          18          19          20
 IAtWgt=          12          12          12          12           1           1           1           1           1           1
 AtmWgt=  12.0000000  12.0000000  12.0000000  12.0000000   1.0078250   1.0078250   1.0078250   1.0078250   1.0078250   1.0078250
 NucSpn=           0           0           0           0           1           1           1           1           1           1
 AtZEff=  -0.0000000  -0.0000000  -0.0000000  -0.0000000  -0.0000000  -0.0000000  -0.0000000  -0.0000000  -0.0000000  -0.0000000
 NQMom=    0.0000000   0.0000000   0.0000000   0.0000000   0.0000000   0.0000000   0.0000000   0.0000000   0.0000000   0.0000000
 NMagM=    0.0000000   0.0000000   0.0000000   0.0000000   2.7928460   2.7928460   2.7928460   2.7928460   2.7928460   2.7928460
 AtZNuc=   6.0000000   6.0000000   6.0000000   6.0000000   1.0000000   1.0000000   1.0000000   1.0000000   1.0000000   1.0000000

  Atom        21          22          23          24          25          26          27          28          29          30
 IAtWgt=           1           1           1           1           1           1           1           1           1           1
 AtmWgt=   1.0078250   1.0078250   1.0078250   1.0078250   1.0078250   1.0078250   1.0078250   1.0078250   1.0078250   1.0078250
 NucSpn=           1           1           1           1           1           1           1           1           1           1
 AtZEff=  -0.0000000  -0.0000000  -0.0000000  -0.0000000  -0.0000000  -0.0000000  -0.0000000  -0.0000000  -0.0000000  -0.0000000
 NQMom=    0.0000000   0.0000000   0.0000000   0.0000000   0.0000000   0.0000000   0.0000000   0.0000000   0.0000000   0.0000000
 NMagM=    2.7928460   2.7928460   2.7928460   2.7928460   2.7928460   2.7928460   2.7928460   2.7928460   2.7928460   2.7928460
 AtZNuc=   1.0000000   1.0000000   1.0000000   1.0000000   1.0000000   1.0000000   1.0000000   1.0000000   1.0000000   1.0000000

  Atom        31          32          33          34          35          36          37          38
 IAtWgt=           1           1           1           1           1           1           1           1
 AtmWgt=   1.0078250   1.0078250   1.0078250   1.0078250   1.0078250   1.0078250   1.0078250   1.0078250
 NucSpn=           1           1           1           1           1           1           1           1
 AtZEff=  -0.0000000  -0.0000000  -0.0000000  -0.0000000  -0.0000000  -0.0000000  -0.0000000  -0.0000000
 NQMom=    0.0000000   0.0000000   0.0000000   0.0000000   0.0000000   0.0000000   0.0000000   0.0000000
 NMagM=    2.7928460   2.7928460   2.7928460   2.7928460   2.7928460   2.7928460   2.7928460   2.7928460
 AtZNuc=   1.0000000   1.0000000   1.0000000   1.0000000   1.0000000   1.0000000   1.0000000   1.0000000
 Leave Link  101 at Thu Apr 24 16:44:14 2025, MaxMem=   536870912 cpu:               0.7 elap:               0.2
 (Enter /shared/ucl/apps/gaussian/g16-c01/pgi-18.10/g16/l103.exe)

 GradGradGradGradGradGradGradGradGradGradGradGradGradGradGradGradGradGrad
 Berny optimization.
 Initialization pass.
                           ----------------------------
                           !    Initial Parameters    !
                           ! (Angstroms and Degrees)  !
 --------------------------                            --------------------------
 ! Name  Definition              Value          Derivative Info.                !
 --------------------------------------------------------------------------------
 ! R1    R(1,2)                  1.5011         estimate D2E/DX2                !
 ! R2    R(1,15)                 1.1104         estimate D2E/DX2                !
 ! R3    R(1,16)                 1.1106         estimate D2E/DX2                !
 ! R4    R(1,17)                 1.1107         estimate D2E/DX2                !
 ! R5    R(2,3)                  1.4868         estimate D2E/DX2                !
 ! R6    R(2,14)                 1.3348         estimate D2E/DX2                !
 ! R7    R(3,4)                  1.3601         estimate D2E/DX2                !
 ! R8    R(3,11)                 1.5535         estimate D2E/DX2                !
 ! R9    R(4,5)                  1.5272         estimate D2E/DX2                !
 ! R10   R(4,18)                 1.0877         estimate D2E/DX2                !
 ! R11   R(5,6)                  1.5512         estimate D2E/DX2                !
 ! R12   R(5,7)                  1.547          estimate D2E/DX2                !
 ! R13   R(5,8)                  1.5642         estimate D2E/DX2                !
 ! R14   R(6,19)                 1.1122         estimate D2E/DX2                !
 ! R15   R(6,20)                 1.1124         estimate D2E/DX2                !
 ! R16   R(6,21)                 1.1122         estimate D2E/DX2                !
 ! R17   R(7,22)                 1.1115         estimate D2E/DX2                !
 ! R18   R(7,23)                 1.112          estimate D2E/DX2                !
 ! R19   R(7,24)                 1.0982         estimate D2E/DX2                !
 ! R20   R(8,9)                  1.5295         estimate D2E/DX2                !
 ! R21   R(8,25)                 1.1126         estimate D2E/DX2                !
 ! R22   R(8,26)                 1.1132         estimate D2E/DX2                !
 ! R23   R(9,10)                 1.5272         estimate D2E/DX2                !
 ! R24   R(9,27)                 1.1124         estimate D2E/DX2                !
 ! R25   R(9,28)                 1.1115         estimate D2E/DX2                !
 ! R26   R(10,11)                1.5606         estimate D2E/DX2                !
 ! R27   R(10,29)                1.1131         estimate D2E/DX2                !
 ! R28   R(10,30)                1.1067         estimate D2E/DX2                !
 ! R29   R(11,12)                1.5449         estimate D2E/DX2                !
 ! R30   R(11,13)                1.555          estimate D2E/DX2                !
 ! R31   R(12,31)                1.1075         estimate D2E/DX2                !
 ! R32   R(12,32)                1.1105         estimate D2E/DX2                !
 ! R33   R(12,33)                1.1118         estimate D2E/DX2                !
 ! R34   R(13,34)                1.1104         estimate D2E/DX2                !
 ! R35   R(13,35)                1.1108         estimate D2E/DX2                !
 ! R36   R(13,36)                1.1117         estimate D2E/DX2                !
 ! R37   R(14,37)                1.083          estimate D2E/DX2                !
 ! R38   R(14,38)                1.0828         estimate D2E/DX2                !
 ! A1    A(2,1,15)             109.6902         estimate D2E/DX2                !
 ! A2    A(2,1,16)             110.7416         estimate D2E/DX2                !
 ! A3    A(2,1,17)             110.0582         estimate D2E/DX2                !
 ! A4    A(15,1,16)            108.5483         estimate D2E/DX2                !
 ! A5    A(15,1,17)            109.314          estimate D2E/DX2                !
 ! A6    A(16,1,17)            108.4516         estimate D2E/DX2                !
 ! A7    A(1,2,3)              119.6724         estimate D2E/DX2                !
 ! A8    A(1,2,14)             119.8419         estimate D2E/DX2                !
 ! A9    A(3,2,14)             120.2298         estimate D2E/DX2                !
 ! A10   A(2,3,4)              114.5416         estimate D2E/DX2                !
 ! A11   A(2,3,11)             117.5411         estimate D2E/DX2                !
 ! A12   A(4,3,11)             127.9171         estimate D2E/DX2                !
 ! A13   A(3,4,5)              129.9813         estimate D2E/DX2                !
 ! A14   A(3,4,18)             115.5438         estimate D2E/DX2                !
 ! A15   A(5,4,18)             114.3823         estimate D2E/DX2                !
 ! A16   A(4,5,6)              107.7261         estimate D2E/DX2                !
 ! A17   A(4,5,7)              109.7087         estimate D2E/DX2                !
 ! A18   A(4,5,8)              113.9801         estimate D2E/DX2                !
 ! A19   A(6,5,7)              105.8266         estimate D2E/DX2                !
 ! A20   A(6,5,8)              106.8873         estimate D2E/DX2                !
 ! A21   A(7,5,8)              112.2439         estimate D2E/DX2                !
 ! A22   A(5,6,19)             110.7742         estimate D2E/DX2                !
 ! A23   A(5,6,20)             111.2747         estimate D2E/DX2                !
 ! A24   A(5,6,21)             110.8001         estimate D2E/DX2                !
 ! A25   A(19,6,20)            107.7022         estimate D2E/DX2                !
 ! A26   A(19,6,21)            108.1547         estimate D2E/DX2                !
 ! A27   A(20,6,21)            108.0029         estimate D2E/DX2                !
 ! A28   A(5,7,22)             110.7473         estimate D2E/DX2                !
 ! A29   A(5,7,23)             110.4113         estimate D2E/DX2                !
 ! A30   A(5,7,24)             113.3465         estimate D2E/DX2                !
 ! A31   A(22,7,23)            107.8673         estimate D2E/DX2                !
 ! A32   A(22,7,24)            107.8386         estimate D2E/DX2                !
 ! A33   A(23,7,24)            106.3856         estimate D2E/DX2                !
 ! A34   A(5,8,9)              116.5469         estimate D2E/DX2                !
 ! A35   A(5,8,25)             109.7323         estimate D2E/DX2                !
 ! A36   A(5,8,26)             110.4272         estimate D2E/DX2                !
 ! A37   A(9,8,25)             108.6522         estimate D2E/DX2                !
 ! A38   A(9,8,26)             105.554          estimate D2E/DX2                !
 ! A39   A(25,8,26)            105.2811         estimate D2E/DX2                !
 ! A40   A(8,9,10)             111.9546         estimate D2E/DX2                !
 ! A41   A(8,9,27)             107.7968         estimate D2E/DX2                !
 ! A42   A(8,9,28)             110.1737         estimate D2E/DX2                !
 ! A43   A(10,9,27)            108.8208         estimate D2E/DX2                !
 ! A44   A(10,9,28)            111.4073         estimate D2E/DX2                !
 ! A45   A(27,9,28)            106.4593         estimate D2E/DX2                !
 ! A46   A(9,10,11)            113.63           estimate D2E/DX2                !
 ! A47   A(9,10,29)            107.6358         estimate D2E/DX2                !
 ! A48   A(9,10,30)            110.2395         estimate D2E/DX2                !
 ! A49   A(11,10,29)           109.5856         estimate D2E/DX2                !
 ! A50   A(11,10,30)           112.666          estimate D2E/DX2                !
 ! A51   A(29,10,30)           102.3688         estimate D2E/DX2                !
 ! A52   A(3,11,10)            115.5566         estimate D2E/DX2                !
 ! A53   A(3,11,12)            109.2167         estimate D2E/DX2                !
 ! A54   A(3,11,13)            108.9933         estimate D2E/DX2                !
 ! A55   A(10,11,12)           108.6482         estimate D2E/DX2                !
 ! A56   A(10,11,13)           106.8934         estimate D2E/DX2                !
 ! A57   A(12,11,13)           107.2102         estimate D2E/DX2                !
 ! A58   A(11,12,31)           111.4695         estimate D2E/DX2                !
 ! A59   A(11,12,32)           111.2003         estimate D2E/DX2                !
 ! A60   A(11,12,33)           110.6905         estimate D2E/DX2                !
 ! A61   A(31,12,32)           107.5808         estimate D2E/DX2                !
 ! A62   A(31,12,33)           108.3432         estimate D2E/DX2                !
 ! A63   A(32,12,33)           107.3927         estimate D2E/DX2                !
 ! A64   A(11,13,34)           110.8637         estimate D2E/DX2                !
 ! A65   A(11,13,35)           111.7945         estimate D2E/DX2                !
 ! A66   A(11,13,36)           111.2304         estimate D2E/DX2                !
 ! A67   A(34,13,35)           108.2484         estimate D2E/DX2                !
 ! A68   A(34,13,36)           108.1782         estimate D2E/DX2                !
 ! A69   A(35,13,36)           106.3326         estimate D2E/DX2                !
 ! A70   A(2,14,37)            120.778          estimate D2E/DX2                !
 ! A71   A(2,14,38)            120.9247         estimate D2E/DX2                !
 ! A72   A(37,14,38)           118.2913         estimate D2E/DX2                !
 ! D1    D(15,1,2,3)          -108.4629         estimate D2E/DX2                !
 ! D2    D(15,1,2,14)           65.7413         estimate D2E/DX2                !
 ! D3    D(16,1,2,3)            11.3253         estimate D2E/DX2                !
 ! D4    D(16,1,2,14)         -174.4706         estimate D2E/DX2                !
 ! D5    D(17,1,2,3)           131.2303         estimate D2E/DX2                !
 ! D6    D(17,1,2,14)          -54.5656         estimate D2E/DX2                !
 ! D7    D(1,2,3,4)             81.1911         estimate D2E/DX2                !
 ! D8    D(1,2,3,11)           -98.9542         estimate D2E/DX2                !
 ! D9    D(14,2,3,4)           -92.9902         estimate D2E/DX2                !
 ! D10   D(14,2,3,11)           86.8644         estimate D2E/DX2                !
 ! D11   D(1,2,14,37)            3.1657         estimate D2E/DX2                !
 ! D12   D(1,2,14,38)         -175.9251         estimate D2E/DX2                !
 ! D13   D(3,2,14,37)          177.3371         estimate D2E/DX2                !
 ! D14   D(3,2,14,38)           -1.7536         estimate D2E/DX2                !
 ! D15   D(2,3,4,5)            173.1969         estimate D2E/DX2                !
 ! D16   D(2,3,4,18)            -3.0638         estimate D2E/DX2                !
 ! D17   D(11,3,4,5)            -6.6398         estimate D2E/DX2                !
 ! D18   D(11,3,4,18)          177.0996         estimate D2E/DX2                !
 ! D19   D(2,3,11,10)          162.9666         estimate D2E/DX2                !
 ! D20   D(2,3,11,12)          -74.2115         estimate D2E/DX2                !
 ! D21   D(2,3,11,13)           42.619          estimate D2E/DX2                !
 ! D22   D(4,3,11,10)          -17.201          estimate D2E/DX2                !
 ! D23   D(4,3,11,12)          105.6209         estimate D2E/DX2                !
 ! D24   D(4,3,11,13)         -137.5486         estimate D2E/DX2                !
 ! D25   D(3,4,5,6)            175.3895         estimate D2E/DX2                !
 ! D26   D(3,4,5,7)            -69.8617         estimate D2E/DX2                !
 ! D27   D(3,4,5,8)             56.9676         estimate D2E/DX2                !
 ! D28   D(18,4,5,6)            -8.3147         estimate D2E/DX2                !
 ! D29   D(18,4,5,7)           106.4341         estimate D2E/DX2                !
 ! D30   D(18,4,5,8)          -126.7365         estimate D2E/DX2                !
 ! D31   D(4,5,6,19)           -59.5652         estimate D2E/DX2                !
 ! D32   D(4,5,6,20)            60.217          estimate D2E/DX2                !
 ! D33   D(4,5,6,21)          -179.604          estimate D2E/DX2                !
 ! D34   D(7,5,6,19)          -176.8625         estimate D2E/DX2                !
 ! D35   D(7,5,6,20)           -57.0802         estimate D2E/DX2                !
 ! D36   D(7,5,6,21)            63.0987         estimate D2E/DX2                !
 ! D37   D(8,5,6,19)            63.3189         estimate D2E/DX2                !
 ! D38   D(8,5,6,20)          -176.8988         estimate D2E/DX2                !
 ! D39   D(8,5,6,21)           -56.7199         estimate D2E/DX2                !
 ! D40   D(4,5,7,22)          -178.2204         estimate D2E/DX2                !
 ! D41   D(4,5,7,23)           -58.8119         estimate D2E/DX2                !
 ! D42   D(4,5,7,24)            60.4274         estimate D2E/DX2                !
 ! D43   D(6,5,7,22)           -62.263          estimate D2E/DX2                !
 ! D44   D(6,5,7,23)            57.1455         estimate D2E/DX2                !
 ! D45   D(6,5,7,24)           176.3848         estimate D2E/DX2                !
 ! D46   D(8,5,7,22)            53.9781         estimate D2E/DX2                !
 ! D47   D(8,5,7,23)           173.3866         estimate D2E/DX2                !
 ! D48   D(8,5,7,24)           -67.3741         estimate D2E/DX2                !
 ! D49   D(4,5,8,9)            -27.7072         estimate D2E/DX2                !
 ! D50   D(4,5,8,25)          -151.6953         estimate D2E/DX2                !
 ! D51   D(4,5,8,26)            92.6864         estimate D2E/DX2                !
 ! D52   D(6,5,8,9)           -146.6071         estimate D2E/DX2                !
 ! D53   D(6,5,8,25)            89.4048         estimate D2E/DX2                !
 ! D54   D(6,5,8,26)           -26.2136         estimate D2E/DX2                !
 ! D55   D(7,5,8,9)             97.7923         estimate D2E/DX2                !
 ! D56   D(7,5,8,25)           -26.1958         estimate D2E/DX2                !
 ! D57   D(7,5,8,26)          -141.8142         estimate D2E/DX2                !
 ! D58   D(5,8,9,10)           -51.5851         estimate D2E/DX2                !
 ! D59   D(5,8,9,27)          -171.236          estimate D2E/DX2                !
 ! D60   D(5,8,9,28)            72.9811         estimate D2E/DX2                !
 ! D61   D(25,8,9,10)           72.9549         estimate D2E/DX2                !
 ! D62   D(25,8,9,27)          -46.696          estimate D2E/DX2                !
 ! D63   D(25,8,9,28)         -162.4788         estimate D2E/DX2                !
 ! D64   D(26,8,9,10)         -174.5444         estimate D2E/DX2                !
 ! D65   D(26,8,9,27)           65.8046         estimate D2E/DX2                !
 ! D66   D(26,8,9,28)          -49.9782         estimate D2E/DX2                !
 ! D67   D(8,9,10,11)           92.512          estimate D2E/DX2                !
 ! D68   D(8,9,10,29)         -145.9526         estimate D2E/DX2                !
 ! D69   D(8,9,10,30)          -35.0504         estimate D2E/DX2                !
 ! D70   D(27,9,10,11)        -148.4397         estimate D2E/DX2                !
 ! D71   D(27,9,10,29)         -26.9043         estimate D2E/DX2                !
 ! D72   D(27,9,10,30)          83.998          estimate D2E/DX2                !
 ! D73   D(28,9,10,11)         -31.3656         estimate D2E/DX2                !
 ! D74   D(28,9,10,29)          90.1698         estimate D2E/DX2                !
 ! D75   D(28,9,10,30)        -158.928          estimate D2E/DX2                !
 ! D76   D(9,10,11,3)          -36.3            estimate D2E/DX2                !
 ! D77   D(9,10,11,12)        -159.4225         estimate D2E/DX2                !
 ! D78   D(9,10,11,13)          85.1831         estimate D2E/DX2                !
 ! D79   D(29,10,11,3)        -156.7422         estimate D2E/DX2                !
 ! D80   D(29,10,11,12)         80.1353         estimate D2E/DX2                !
 ! D81   D(29,10,11,13)        -35.259          estimate D2E/DX2                !
 ! D82   D(30,10,11,3)          89.9935         estimate D2E/DX2                !
 ! D83   D(30,10,11,12)        -33.129          estimate D2E/DX2                !
 ! D84   D(30,10,11,13)       -148.5233         estimate D2E/DX2                !
 ! D85   D(3,11,12,31)         -53.9312         estimate D2E/DX2                !
 ! D86   D(3,11,12,32)          66.1141         estimate D2E/DX2                !
 ! D87   D(3,11,12,33)        -174.5969         estimate D2E/DX2                !
 ! D88   D(10,11,12,31)         72.9247         estimate D2E/DX2                !
 ! D89   D(10,11,12,32)       -167.03           estimate D2E/DX2                !
 ! D90   D(10,11,12,33)        -47.7409         estimate D2E/DX2                !
 ! D91   D(13,11,12,31)       -171.8866         estimate D2E/DX2                !
 ! D92   D(13,11,12,32)        -51.8413         estimate D2E/DX2                !
 ! D93   D(13,11,12,33)         67.4478         estimate D2E/DX2                !
 ! D94   D(3,11,13,34)          60.0325         estimate D2E/DX2                !
 ! D95   D(3,11,13,35)         -60.8521         estimate D2E/DX2                !
 ! D96   D(3,11,13,36)        -179.5539         estimate D2E/DX2                !
 ! D97   D(10,11,13,34)        -65.5131         estimate D2E/DX2                !
 ! D98   D(10,11,13,35)        173.6023         estimate D2E/DX2                !
 ! D99   D(10,11,13,36)         54.9006         estimate D2E/DX2                !
 ! D100  D(12,11,13,34)        178.1332         estimate D2E/DX2                !
 ! D101  D(12,11,13,35)         57.2486         estimate D2E/DX2                !
 ! D102  D(12,11,13,36)        -61.4531         estimate D2E/DX2                !
 --------------------------------------------------------------------------------
 Trust Radius=3.00D-01 FncErr=1.00D-07 GrdErr=1.00D-06 EigMax=2.50D+02 EigMin=1.00D-04
 Number of steps in this run=    222 maximum allowed number of steps=    228.
 GradGradGradGradGradGradGradGradGradGradGradGradGradGradGradGradGradGrad

 Leave Link  103 at Thu Apr 24 16:44:14 2025, MaxMem=   536870912 cpu:               0.1 elap:               0.0
 (Enter /shared/ucl/apps/gaussian/g16-c01/pgi-18.10/g16/l202.exe)
                          Input orientation:                          
 ---------------------------------------------------------------------
 Center     Atomic      Atomic             Coordinates (Angstroms)
 Number     Number       Type             X           Y           Z
 ---------------------------------------------------------------------
      1          6           0       -1.983538    2.210515   -1.356364
      2          6           0       -1.859634    1.352240   -0.131127
      3          6           0       -0.693265    0.441821    0.014904
      4          6           0        0.440858    1.044104    0.463043
      5          6           0        1.781422    0.434595    0.867769
      6          6           0        2.753258    1.600714    1.187125
      7          6           0        1.618709   -0.352972    2.189325
      8          6           0        2.454189   -0.423358   -0.253825
      9          6           0        1.515775   -1.082310   -1.265959
     10          6           0        0.405435   -1.877070   -0.581899
     11          6           0       -0.899989   -1.054370   -0.348410
     12          6           0       -1.722860   -1.739121    0.765470
     13          6           0       -1.732677   -1.146681   -1.658427
     14          6           0       -2.730963    1.494073    0.870097
     15          1           0       -1.791435    3.271446   -1.090955
     16          1           0       -1.248562    1.901054   -2.129337
     17          1           0       -3.004142    2.117988   -1.784666
     18          1           0        0.374101    2.119790    0.609734
     19          1           0        2.885322    2.258382    0.299955
     20          1           0        2.368976    2.229727    2.020270
     21          1           0        3.752720    1.212284    1.482413
     22          1           0        2.592157   -0.777706    2.516964
     23          1           0        1.249500    0.316469    2.996772
     24          1           0        0.898279   -1.178808    2.117944
     25          1           0        3.090659   -1.211230    0.206735
     26          1           0        3.151086    0.201954   -0.855988
     27          1           0        2.121608   -1.776030   -1.889800
     28          1           0        1.100446   -0.317938   -1.957749
     29          1           0        0.180500   -2.760512   -1.220534
     30          1           0        0.785807   -2.345801    0.345719
     31          1           0       -1.261795   -1.588164    1.761107
     32          1           0       -2.755614   -1.333221    0.809048
     33          1           0       -1.802995   -2.832253    0.579098
     34          1           0       -1.208883   -0.640332   -2.496489
     35          1           0       -2.735187   -0.682231   -1.543485
     36          1           0       -1.909899   -2.205015   -1.949069
     37          1           0       -3.559535    2.186740    0.789704
     38          1           0       -2.619834    0.931227    1.788422
 ---------------------------------------------------------------------
                    Distance matrix (angstroms):
                    1          2          3          4          5
     1  C    0.000000
     2  C    1.501064   0.000000
     3  C    2.583304   1.486810   0.000000
     4  C    3.247838   2.395882   1.360077   0.000000
     5  C    4.719702   3.885506   2.617538   1.527225   0.000000
     6  C    5.410955   4.803988   3.820426   2.486223   1.551221
     7  C    5.667412   4.515652   3.271854   2.513803   1.547012
     8  C    5.276959   4.666570   3.275243   2.592459   1.564184
     9  C    4.805836   4.313730   2.973793   2.943897   2.631419
    10  C    4.797430   3.970161   2.634496   3.102647   3.055924
    11  C    3.584623   2.599981   1.553486   2.619145   3.299405
    12  C    4.491075   3.221662   2.525851   3.538288   4.124985
    13  C    3.380080   2.931445   2.530564   3.744920   4.607710
    14  C    2.455415   1.334833   2.447612   3.229336   4.635096
    15  H    1.110369   2.146922   3.230430   3.515550   4.964839
    16  H    1.110605   2.160428   2.652449   3.210753   4.507100
    17  H    1.110692   2.151850   3.374632   4.251288   5.724583
    18  H    3.071194   2.475395   2.075734   1.087693   2.210660
    19  H    5.143100   4.849900   4.023361   2.734314   2.206175
    20  H    5.508757   4.824897   4.073748   2.747416   2.212686
    21  H    6.477637   5.841371   4.744890   3.469269   2.206491
    22  H    6.698442   5.600670   4.305990   3.487932   2.201547
    23  H    5.743669   4.530264   3.561121   2.757379   2.197623
    24  H    5.644749   4.366991   3.095517   2.808784   2.223949
    25  H    6.316573   5.584884   4.133698   3.489079   2.204497
    26  H    5.536159   5.191907   3.949054   3.129600   2.213919
    27  H    5.747114   5.359971   4.058358   4.039053   3.550602
    28  H    4.033075   3.858512   2.772362   2.854899   3.002264
    29  H    5.423340   4.718441   3.541851   4.168611   4.139163
    30  H    5.596997   4.571788   3.173000   3.409430   2.999064
    31  H    4.966840   3.547384   2.737388   3.393056   3.761752
    32  H    4.224118   2.983020   2.834559   3.998603   4.869632
    33  H    5.404454   4.244715   3.502767   4.480456   4.858361
    34  H    3.166592   3.160500   2.782806   3.783887   4.627702
    35  H    2.994657   2.626865   2.803839   4.134447   5.240344
    36  H    4.455741   3.995185   3.513279   4.679863   5.341158
    37  H    2.662694   2.105703   3.443917   4.173184   5.621559
    38  H    3.454147   2.107089   2.663936   3.337245   4.523859
                    6          7          8          9         10
     6  C    0.000000
     7  C    2.471537   0.000000
     8  C    2.502528   2.583014   0.000000
     9  C    3.840261   3.532919   1.529462   0.000000
    10  C    4.553757   3.387417   2.533437   1.527232   0.000000
    11  C    4.770068   3.643611   3.414328   2.584297   1.560604
    12  C    5.600707   3.887783   4.496436   3.879028   2.522711
    13  C    5.980716   5.164006   4.475036   3.272708   2.502779
    14  C    5.494412   4.906280   5.641413   5.406965   4.828032
    15  H    5.351189   5.960346   5.690139   5.470234   5.620729
    16  H    5.206120   5.652673   4.757184   4.157817   4.405053
    17  H    6.499751   6.577918   6.212511   5.562429   5.388168
    18  H    2.502640   3.187273   3.397073   3.882665   4.170835
    19  H    1.112222   3.463120   2.772053   3.935476   4.901986
    20  H    1.112412   2.694775   3.495373   4.743084   5.243335
    21  H    1.112204   2.739298   2.715885   4.221686   5.000981
    22  H    2.729708   1.111462   2.796761   3.944856   3.948836
    23  H    2.680559   1.111952   3.544714   4.494259   4.281465
    24  H    3.468878   1.098235   2.935447   3.441135   2.831893
    25  H    2.997004   2.614174   1.112633   2.160025   2.876754
    26  H    2.507809   3.453991   1.113230   2.119352   3.454861
    27  H    4.611816   4.349398   2.148661   1.112411   2.160107
    28  H    4.037728   4.179479   2.178782   1.111457   2.192463
    29  H    5.606799   4.414956   3.400952   2.145084   1.113068
    30  H    4.489299   2.839714   2.615098   2.174113   1.106737
    31  H    5.159365   3.163285   4.384662   4.139313   2.890121
    32  H    6.252886   4.690496   5.394404   4.755352   3.496103
    33  H    6.385948   4.521916   4.961870   4.181001   2.671601
    34  H    5.855754   5.480393   4.300548   3.022137   2.793063
    35  H    6.541490   5.744449   5.353491   4.278757   3.495110
    36  H    6.787070   5.745210   5.009333   3.669107   2.708777
    37  H    6.352380   5.934921   6.638256   6.377398   5.840962
    38  H    5.447925   4.446924   5.634837   5.521489   4.759959
                   11         12         13         14         15
    11  C    0.000000
    12  C    1.544904   0.000000
    13  C    1.555003   2.495267   0.000000
    14  C    3.366272   3.388327   3.789933   0.000000
    15  H    4.478698   5.343856   4.454809   2.808468   0.000000
    16  H    3.468103   4.675012   3.121668   3.370423   1.803031
    17  H    4.068679   4.798142   3.505799   2.740741   1.811728
    18  H    3.551991   4.394621   4.500322   3.178165   2.984661
    19  H    5.071813   6.118176   6.062642   5.696656   4.983271
    20  H    5.204044   5.836900   6.461927   5.279532   5.298483
    21  H    5.489748   6.261531   6.746790   6.518626   6.449808
    22  H    4.525704   4.755147   6.022808   6.017371   6.973420
    23  H    4.205918   4.247244   5.718834   4.664074   5.889710
    24  H    3.054858   3.002250   4.602601   4.676838   6.110348
    25  H    4.032129   4.874507   5.171805   6.453681   6.753756
    26  H    4.271673   5.491106   5.129704   6.264778   5.822843
    27  H    3.467957   4.672446   3.912177   6.469780   6.436387
    28  H    2.670963   4.172138   2.966984   5.095075   4.690201
    29  H    2.199768   2.934319   2.540954   5.563169   6.347427
    30  H    2.234170   2.614892   3.434713   5.233285   6.345051
    31  H    2.205879   1.107548   3.479921   3.528815   5.659557
    32  H    2.204725   1.110511   2.677617   2.828060   5.073718
    33  H    2.199218   1.111798   2.802252   4.434287   6.328061
    34  H    2.209318   3.480214   1.110449   4.266886   4.197249
    35  H    2.221406   2.733696   1.110834   3.249876   4.089867
    36  H    2.214952   2.760573   1.111733   4.722827   5.544549
    37  H    4.344339   4.334322   4.521333   1.082951   2.799936
    38  H    3.386224   2.996957   4.121349   1.082805   3.801800
                   16         17         18         19         20
    16  H    0.000000
    17  H    1.802199   0.000000
    18  H    3.191143   4.140734   0.000000
    19  H    4.808133   6.249091   2.534048   0.000000
    20  H    5.514875   6.584863   2.445654   1.796362   0.000000
    21  H    6.207412   7.559715   3.605579   1.801363   1.799786
    22  H    6.596589   7.629392   4.117376   3.770796   3.056332
    23  H    5.918464   6.648390   3.117088   3.704020   2.422259
    24  H    5.668675   6.428695   3.664725   4.366658   3.713570
    25  H    5.828583   7.224678   4.317151   3.476933   3.955998
    26  H    4.885208   6.513099   3.679413   2.373969   3.605055
    27  H    4.993633   6.437992   4.947612   4.653468   5.603207
    28  H    3.235924   4.776121   3.614148   3.862698   4.891258
    29  H    4.959671   5.853200   5.215813   5.900614   6.339931
    30  H    5.319806   6.231185   4.492294   5.060490   5.123085
    31  H    5.225933   5.416996   4.213163   5.842043   5.275031
    32  H    4.622321   4.324345   4.664561   6.706635   6.357915
    33  H    5.481534   5.615605   5.409567   6.926240   6.716097
    34  H    2.568077   3.367191   4.446654   5.743271   6.437346
    35  H    3.037538   2.823425   4.706947   6.605725   6.872578
    36  H    4.162892   4.462371   5.519789   6.926339   7.330168
    37  H    3.734034   2.634496   3.938320   6.463835   6.055030
    38  H    4.262603   3.784581   3.430107   5.855221   5.160240
                   21         22         23         24         25
    21  H    0.000000
    22  H    2.525324   0.000000
    23  H    3.059719   1.797265   0.000000
    24  H    3.777440   1.785867   1.769618   0.000000
    25  H    2.817641   2.402833   3.675328   2.908660   0.000000
    26  H    2.617413   3.556535   4.298011   3.978180   1.769215
    27  H    4.791906   4.542867   5.386809   4.232637   2.377713
    28  H    4.605524   4.739161   4.997196   4.170521   3.073094
    29  H    5.987469   4.869959   5.328813   3.763300   3.592547
    30  H    4.770180   3.230500   3.785601   2.124924   2.572724
    31  H    5.750264   4.010126   3.385424   2.227291   4.637026
    32  H    7.020785   5.641297   4.852685   3.884326   5.878484
    33  H    6.931106   5.224352   5.007726   3.521194   5.168580
    34  H    6.624300   6.292971   6.093852   5.101282   5.110715
    35  H    7.405281   6.699026   6.122832   5.182155   6.106029
    36  H    7.451057   6.500090   6.387568   5.047728   5.535402
    37  H    7.409351   7.043769   5.612119   5.741362   7.490736
    38  H    6.386085   5.533180   4.099974   4.115574   6.300919
                   26         27         28         29         30
    26  H    0.000000
    27  H    2.457847   0.000000
    28  H    2.385223   1.781410   0.000000
    29  H    4.211114   2.277064   2.712186   0.000000
    30  H    3.678274   2.665811   3.084994   1.729604   0.000000
    31  H    5.433896   4.981148   4.585144   3.513516   2.601924
    32  H    6.325995   5.591704   4.853366   3.844103   3.712365
    33  H    5.984046   4.755373   4.602971   2.679193   2.644428
    34  H    4.733922   3.570721   2.393153   2.837888   3.868534
    35  H    5.991882   4.990470   3.875101   3.595105   4.328274
    36  H    5.709807   4.054700   3.552930   2.282347   3.542979
    37  H    7.188888   7.426889   5.961320   6.519526   6.294684
    38  H    6.389700   6.583299   5.425375   5.524909   4.941528
                   31         32         33         34         35
    31  H    0.000000
    32  H    1.789667   0.000000
    33  H    1.799389   1.790937   0.000000
    34  H    4.362145   3.714707   3.823182   0.000000
    35  H    3.729870   2.441028   3.161793   1.799882   0.000000
    36  H    3.816536   3.013713   2.607007   1.799812   1.778896
    37  H    4.524725   3.610649   5.321661   4.931224   3.788709
    38  H    2.862228   2.470897   4.036517   4.777137   3.703803
                   36         37         38
    36  H    0.000000
    37  H    5.432282   0.000000
    38  H    4.930402   1.859244   0.000000
 Stoichiometry    C14H24
 Framework group  C1[X(C14H24)]
 Deg. of freedom   108
 Full point group                 C1      NOp   1
 Largest Abelian subgroup         C1      NOp   1
 Largest concise Abelian subgroup C1      NOp   1
                         Standard orientation:                         
 ---------------------------------------------------------------------
 Center     Atomic      Atomic             Coordinates (Angstroms)
 Number     Number       Type             X           Y           Z
 ---------------------------------------------------------------------
      1          6           0        2.441762   -1.588764   -1.423144
      2          6           0        1.919636   -1.186686   -0.074474
      3          6           0        0.681914   -0.368510    0.021629
      4          6           0       -0.473726   -1.077481   -0.086368
      5          6           0       -1.921623   -0.627932    0.097794
      6          6           0       -2.837812   -1.826811   -0.262170
      7          6           0       -2.188384   -0.326665    1.591556
      8          6           0       -2.341512    0.559405   -0.829889
      9          6           0       -1.227477    1.511056   -1.268682
     10          6           0       -0.414832    2.024603   -0.081957
     11          6           0        0.846958    1.161735    0.232414
     12          6           0        1.278222    1.430474    1.691359
     13          6           0        1.988850    1.679082   -0.687625
     14          6           0        2.499759   -1.660147    1.030547
     15          1           0        2.278972   -2.676109   -1.578393
     16          1           0        1.916669   -1.034251   -2.229516
     17          1           0        3.527682   -1.366222   -1.493071
     18          1           0       -0.355050   -2.141062   -0.280758
     19          1           0       -2.669380   -2.150492   -1.312837
     20          1           0       -2.637418   -2.700141    0.397070
     21          1           0       -3.909804   -1.551720   -0.151920
     22          1           0       -3.247254   -0.028305    1.750052
     23          1           0       -1.992035   -1.229446    2.210321
     24          1           0       -1.550141    0.470589    1.995477
     25          1           0       -3.144389    1.153467   -0.339550
     26          1           0       -2.794212    0.175376   -1.771624
     27          1           0       -1.702175    2.377283   -1.780318
     28          1           0       -0.576873    1.017755   -2.022807
     29          1           0       -0.105038    3.068663   -0.311929
     30          1           0       -1.069270    2.160356    0.800171
     31          1           0        0.582249    0.959861    2.413028
     32          1           0        2.292885    1.025812    1.891218
     33          1           0        1.309593    2.522663    1.896867
     34          1           0        1.755057    1.484541   -1.755610
     35          1           0        2.960484    1.195664   -0.450592
     36          1           0        2.144349    2.772488   -0.560215
     37          1           0        3.376773   -2.292438    0.968620
     38          1           0        2.097923   -1.434498    2.010382
 ---------------------------------------------------------------------
 Rotational constants (GHZ):           0.8852468           0.5722163           0.4737627
 Leave Link  202 at Thu Apr 24 16:44:14 2025, MaxMem=   536870912 cpu:               0.1 elap:               0.0
 (Enter /shared/ucl/apps/gaussian/g16-c01/pgi-18.10/g16/l301.exe)
 Standard basis: 6-31G(d) (6D, 7F)
 Ernie: Thresh=  0.10000D-02 Tol=  0.10000D-05 Strict=F.
 There are   258 symmetry adapted cartesian basis functions of A   symmetry.
 There are   258 symmetry adapted basis functions of A   symmetry.
   258 basis functions,   488 primitive gaussians,   258 cartesian basis functions
    54 alpha electrons       54 beta electrons
       nuclear repulsion energy       980.6723755232 Hartrees.
 IExCor=  402 DFT=T Ex+Corr=B3LYP ExCW=0 ScaHFX=  0.200000
 ScaDFX=  0.800000  0.720000  1.000000  0.810000 ScalE2=  1.000000  1.000000
 IRadAn=      5 IRanWt=     -1 IRanGd=            0 ICorTp=0 IEmpDi=  4
 NAtoms=   38 NActive=   38 NUniq=   38 SFac= 1.00D+00 NAtFMM=   60 NAOKFM=F Big=F
 Integral buffers will be    131072 words long.
 Raffenetti 2 integral format.
 Two-electron integral symmetry is turned on.
 Leave Link  301 at Thu Apr 24 16:44:14 2025, MaxMem=   536870912 cpu:               0.2 elap:               0.1
 (Enter /shared/ucl/apps/gaussian/g16-c01/pgi-18.10/g16/l302.exe)
 NPDir=0 NMtPBC=     1 NCelOv=     1 NCel=       1 NClECP=     1 NCelD=      1
         NCelK=      1 NCelE2=     1 NClLst=     1 CellRange=     0.0.
 One-electron integrals computed using PRISM.
 One-electron integral symmetry used in STVInt
 NBasis=   258 RedAO= T EigKep=  1.88D-03  NBF=   258
 NBsUse=   258 1.00D-06 EigRej= -1.00D+00 NBFU=   258
 Precomputing XC quadrature grid using
 IXCGrd= 4 IRadAn=           5 IRanWt=          -1 IRanGd=           0 AccXCQ= 0.00D+00.
 Generated NRdTot=       0 NPtTot=           0 NUsed=           0 NTot=          32
 NSgBfM=   258   258   258   258   258 MxSgAt=    38 MxSgA2=    38.
 Leave Link  302 at Thu Apr 24 16:44:15 2025, MaxMem=   536870912 cpu:               2.4 elap:               0.6
 (Enter /shared/ucl/apps/gaussian/g16-c01/pgi-18.10/g16/l303.exe)
 DipDrv:  MaxL=1.
 Leave Link  303 at Thu Apr 24 16:44:15 2025, MaxMem=   536870912 cpu:               0.1 elap:               0.1
 (Enter /shared/ucl/apps/gaussian/g16-c01/pgi-18.10/g16/l401.exe)
 ExpMin= 1.61D-01 ExpMax= 3.05D+03 ExpMxC= 4.57D+02 IAcc=3 IRadAn=         5 AccDes= 0.00D+00
 Harris functional with IExCor=  402 and IRadAn=       5 diagonalized for initial guess.
 HarFok:  IExCor=  402 AccDes= 0.00D+00 IRadAn=         5 IDoV= 1 UseB2=F ITyADJ=14
 ICtDFT=  3500011 ScaDFX=  1.000000  1.000000  1.000000  1.000000
 FoFCou: FMM=F IPFlag=           0 FMFlag=      100000 FMFlg1=           0
         NFxFlg=           0 DoJE=T BraDBF=F KetDBF=T FulRan=T
         wScrn=  0.000000 ICntrl=       500 IOpCl=  0 I1Cent=   200000004 NGrid=           0
         NMat0=    1 NMatS0=      1 NMatT0=    0 NMatD0=    1 NMtDS0=    0 NMtDT0=    0
 Petite list used in FoFCou.
 Harris En= -547.984303792756    
 JPrj=0 DoOrth=F DoCkMO=F.
 Leave Link  401 at Thu Apr 24 16:44:19 2025, MaxMem=   536870912 cpu:              17.6 elap:               4.4
 (Enter /shared/ucl/apps/gaussian/g16-c01/pgi-18.10/g16/l502.exe)
 Integral symmetry usage will be decided dynamically.
 Closed shell SCF:
 Using DIIS extrapolation, IDIIS=  1040.
 NGot=   536870912 LenX=   536732108 LenY=   536665103
 Requested convergence on RMS density matrix=1.00D-08 within 128 cycles.
 Requested convergence on MAX density matrix=1.00D-06.
 Requested convergence on             energy=1.00D-06.
 No special actions if energy rises.
 Fock matrices will be formed incrementally for  20 cycles.
 Integral accuracy reduced to 1.0D-05 until final iterations.

 Cycle   1  Pass 0  IDiag  1:
 FoFJK:  IHMeth= 1 ICntrl=       0 DoSepK=F KAlg= 0 I1Cent=           0 FoldK=F
 IRaf= 920000000 NMat=       1 IRICut=       1 DoRegI=T DoRafI=F ISym2E= 0 IDoP0=0 IntGTp=1.
 FoFCou: FMM=F IPFlag=           0 FMFlag=      100000 FMFlg1=           0
         NFxFlg=           0 DoJE=F BraDBF=F KetDBF=F FulRan=T
         wScrn=  0.000000 ICntrl=         0 IOpCl=  0 I1Cent=           0 NGrid=           0
         NMat0=    1 NMatS0=      1 NMatT0=    0 NMatD0=    1 NMtDS0=    0 NMtDT0=    0
 Symmetry not used in FoFCou.
 E= -547.392736383077    
 DIIS: error= 3.64D-02 at cycle   1 NSaved=   1.
 NSaved= 1 IEnMin= 1 EnMin= -547.392736383077     IErMin= 1 ErrMin= 3.64D-02
 ErrMax= 3.64D-02  0.00D+00 EMaxC= 1.00D-01 BMatC= 4.53D-01 BMatP= 4.53D-01
 IDIUse=3 WtCom= 6.36D-01 WtEn= 3.64D-01
 Coeff-Com:  0.100D+01
 Coeff-En:   0.100D+01
 Coeff:      0.100D+01
 Gap=     0.234 Goal=   None    Shift=    0.000
 GapD=    0.234 DampG=1.000 DampE=0.500 DampFc=0.5000 IDamp=-1.
 Damping current iteration by 5.00D-01
 RMSDP=6.39D-03 MaxDP=1.61D-01              OVMax= 1.68D-01

 Cycle   2  Pass 0  IDiag  1:
 RMSU=  3.15D-03    CP:  9.73D-01
 E= -547.616013597674     Delta-E=       -0.223277214598 Rises=F Damp=T
 DIIS: error= 5.98D-03 at cycle   2 NSaved=   2.
 NSaved= 2 IEnMin= 2 EnMin= -547.616013597674     IErMin= 2 ErrMin= 5.98D-03
 ErrMax= 5.98D-03  0.00D+00 EMaxC= 1.00D-01 BMatC= 2.10D-02 BMatP= 4.53D-01
 IDIUse=3 WtCom= 9.40D-01 WtEn= 5.98D-02
 Coeff-Com:  0.657D-01 0.934D+00
 Coeff-En:   0.118D+00 0.882D+00
 Coeff:      0.688D-01 0.931D+00
 Gap=     0.253 Goal=   None    Shift=    0.000
 RMSDP=1.46D-03 MaxDP=3.61D-02 DE=-2.23D-01 OVMax= 1.00D-01

 Cycle   3  Pass 0  IDiag  1:
 RMSU=  1.26D-03    CP:  9.69D-01  7.70D-01
 E= -547.887711928012     Delta-E=       -0.271698330337 Rises=F Damp=F
 DIIS: error= 3.17D-03 at cycle   3 NSaved=   3.
 NSaved= 3 IEnMin= 3 EnMin= -547.887711928012     IErMin= 3 ErrMin= 3.17D-03
 ErrMax= 3.17D-03  0.00D+00 EMaxC= 1.00D-01 BMatC= 5.38D-03 BMatP= 2.10D-02
 IDIUse=3 WtCom= 9.68D-01 WtEn= 3.17D-02
 Coeff-Com: -0.363D-02 0.289D+00 0.714D+00
 Coeff-En:   0.000D+00 0.000D+00 0.100D+01
 Coeff:     -0.352D-02 0.280D+00 0.723D+00
 Gap=     0.245 Goal=   None    Shift=    0.000
 RMSDP=6.20D-04 MaxDP=1.74D-02 DE=-2.72D-01 OVMax= 2.87D-02

 Cycle   4  Pass 0  IDiag  1:
 RMSU=  4.26D-04    CP:  9.69D-01  8.49D-01  7.02D-01
 E= -547.890588172318     Delta-E=       -0.002876244306 Rises=F Damp=F
 DIIS: error= 2.68D-03 at cycle   4 NSaved=   4.
 NSaved= 4 IEnMin= 4 EnMin= -547.890588172318     IErMin= 4 ErrMin= 2.68D-03
 ErrMax= 2.68D-03  0.00D+00 EMaxC= 1.00D-01 BMatC= 2.61D-03 BMatP= 5.38D-03
 IDIUse=3 WtCom= 9.73D-01 WtEn= 2.68D-02
 Coeff-Com: -0.820D-02 0.602D-01 0.420D+00 0.528D+00
 Coeff-En:   0.000D+00 0.000D+00 0.334D+00 0.666D+00
 Coeff:     -0.798D-02 0.585D-01 0.418D+00 0.532D+00
 Gap=     0.241 Goal=   None    Shift=    0.000
 RMSDP=2.48D-04 MaxDP=9.06D-03 DE=-2.88D-03 OVMax= 1.81D-02

 Cycle   5  Pass 0  IDiag  1:
 RMSU=  9.35D-05    CP:  9.69D-01  8.27D-01  7.97D-01  5.67D-01
 E= -547.893106131990     Delta-E=       -0.002517959673 Rises=F Damp=F
 DIIS: error= 5.26D-04 at cycle   5 NSaved=   5.
 NSaved= 5 IEnMin= 5 EnMin= -547.893106131990     IErMin= 5 ErrMin= 5.26D-04
 ErrMax= 5.26D-04  0.00D+00 EMaxC= 1.00D-01 BMatC= 1.01D-04 BMatP= 2.61D-03
 IDIUse=3 WtCom= 9.95D-01 WtEn= 5.26D-03
 Coeff-Com: -0.293D-02 0.104D-01 0.157D+00 0.257D+00 0.579D+00
 Coeff-En:   0.000D+00 0.000D+00 0.000D+00 0.000D+00 0.100D+01
 Coeff:     -0.291D-02 0.104D-01 0.156D+00 0.255D+00 0.581D+00
 Gap=     0.239 Goal=   None    Shift=    0.000
 RMSDP=5.24D-05 MaxDP=2.37D-03 DE=-2.52D-03 OVMax= 6.05D-03

 Cycle   6  Pass 0  IDiag  1:
 RMSU=  3.50D-05    CP:  9.69D-01  8.28D-01  7.97D-01  5.85D-01  5.94D-01
 E= -547.893190034282     Delta-E=       -0.000083902292 Rises=F Damp=F
 DIIS: error= 2.31D-04 at cycle   6 NSaved=   6.
 NSaved= 6 IEnMin= 6 EnMin= -547.893190034282     IErMin= 6 ErrMin= 2.31D-04
 ErrMax= 2.31D-04  0.00D+00 EMaxC= 1.00D-01 BMatC= 2.06D-05 BMatP= 1.01D-04
 IDIUse=3 WtCom= 9.98D-01 WtEn= 2.31D-03
 Coeff-Com: -0.948D-03 0.101D-02 0.594D-01 0.111D+00 0.367D+00 0.463D+00
 Coeff-En:   0.000D+00 0.000D+00 0.000D+00 0.000D+00 0.155D+00 0.845D+00
 Coeff:     -0.945D-03 0.101D-02 0.593D-01 0.111D+00 0.366D+00 0.463D+00
 Gap=     0.239 Goal=   None    Shift=    0.000
 RMSDP=1.91D-05 MaxDP=8.42D-04 DE=-8.39D-05 OVMax= 1.93D-03

 Cycle   7  Pass 0  IDiag  1:
 RMSU=  7.02D-06    CP:  9.69D-01  8.28D-01  7.99D-01  5.92D-01  6.48D-01
                    CP:  5.27D-01
 E= -547.893211140836     Delta-E=       -0.000021106554 Rises=F Damp=F
 DIIS: error= 2.01D-05 at cycle   7 NSaved=   7.
 NSaved= 7 IEnMin= 7 EnMin= -547.893211140836     IErMin= 7 ErrMin= 2.01D-05
 ErrMax= 2.01D-05  0.00D+00 EMaxC= 1.00D-01 BMatC= 3.10D-07 BMatP= 2.06D-05
 IDIUse=1 WtCom= 1.00D+00 WtEn= 0.00D+00
 Coeff-Com: -0.193D-03-0.197D-03 0.169D-01 0.331D-01 0.125D+00 0.191D+00
 Coeff-Com:  0.635D+00
 Coeff:     -0.193D-03-0.197D-03 0.169D-01 0.331D-01 0.125D+00 0.191D+00
 Coeff:      0.635D+00
 Gap=     0.239 Goal=   None    Shift=    0.000
 RMSDP=3.21D-06 MaxDP=1.26D-04 DE=-2.11D-05 OVMax= 2.20D-04

 Initial convergence to 1.0D-05 achieved.  Increase integral accuracy.
 Cycle   8  Pass 1  IDiag  1:
 E= -547.893193554988     Delta-E=        0.000017585848 Rises=F Damp=F
 DIIS: error= 1.42D-05 at cycle   1 NSaved=   1.
 NSaved= 1 IEnMin= 1 EnMin= -547.893193554988     IErMin= 1 ErrMin= 1.42D-05
 ErrMax= 1.42D-05  0.00D+00 EMaxC= 1.00D-01 BMatC= 2.03D-07 BMatP= 2.03D-07
 IDIUse=1 WtCom= 1.00D+00 WtEn= 0.00D+00
 Coeff-Com:  0.100D+01
 Coeff:      0.100D+01
 Gap=     0.239 Goal=   None    Shift=    0.000
 RMSDP=3.21D-06 MaxDP=1.26D-04 DE= 1.76D-05 OVMax= 3.65D-04

 Cycle   9  Pass 1  IDiag  1:
 RMSU=  6.94D-06    CP:  1.00D+00
 E= -547.893193400513     Delta-E=        0.000000154475 Rises=F Damp=F
 DIIS: error= 2.57D-05 at cycle   2 NSaved=   2.
 NSaved= 2 IEnMin= 1 EnMin= -547.893193554988     IErMin= 1 ErrMin= 1.42D-05
 ErrMax= 2.57D-05  0.00D+00 EMaxC= 1.00D-01 BMatC= 3.38D-07 BMatP= 2.03D-07
 IDIUse=1 WtCom= 1.00D+00 WtEn= 0.00D+00
 Coeff-Com:  0.578D+00 0.422D+00
 Coeff:      0.578D+00 0.422D+00
 Gap=     0.239 Goal=   None    Shift=    0.000
 RMSDP=2.90D-06 MaxDP=1.68D-04 DE= 1.54D-07 OVMax= 3.38D-04

 Cycle  10  Pass 1  IDiag  1:
 RMSU=  2.64D-06    CP:  1.00D+00  8.25D-01
 E= -547.893193701023     Delta-E=       -0.000000300510 Rises=F Damp=F
 DIIS: error= 9.13D-06 at cycle   3 NSaved=   3.
 NSaved= 3 IEnMin= 3 EnMin= -547.893193701023     IErMin= 3 ErrMin= 9.13D-06
 ErrMax= 9.13D-06  0.00D+00 EMaxC= 1.00D-01 BMatC= 4.08D-08 BMatP= 2.03D-07
 IDIUse=1 WtCom= 1.00D+00 WtEn= 0.00D+00
 Coeff-Com:  0.370D-01 0.256D+00 0.707D+00
 Coeff:      0.370D-01 0.256D+00 0.707D+00
 Gap=     0.239 Goal=   None    Shift=    0.000
 RMSDP=9.78D-07 MaxDP=5.20D-05 DE=-3.01D-07 OVMax= 9.65D-05

 Cycle  11  Pass 1  IDiag  1:
 RMSU=  5.70D-07    CP:  1.00D+00  8.77D-01  7.32D-01
 E= -547.893193738927     Delta-E=       -0.000000037904 Rises=F Damp=F
 DIIS: error= 2.47D-06 at cycle   4 NSaved=   4.
 NSaved= 4 IEnMin= 4 EnMin= -547.893193738927     IErMin= 4 ErrMin= 2.47D-06
 ErrMax= 2.47D-06  0.00D+00 EMaxC= 1.00D-01 BMatC= 3.74D-09 BMatP= 4.08D-08
 IDIUse=1 WtCom= 1.00D+00 WtEn= 0.00D+00
 Coeff-Com: -0.628D-02 0.129D+00 0.415D+00 0.462D+00
 Coeff:     -0.628D-02 0.129D+00 0.415D+00 0.462D+00
 Gap=     0.239 Goal=   None    Shift=    0.000
 RMSDP=3.02D-07 MaxDP=8.10D-06 DE=-3.79D-08 OVMax= 1.26D-05

 Cycle  12  Pass 1  IDiag  1:
 RMSU=  6.24D-08    CP:  1.00D+00  8.81D-01  7.57D-01  4.96D-01
 E= -547.893193742778     Delta-E=       -0.000000003851 Rises=F Damp=F
 DIIS: error= 1.85D-07 at cycle   5 NSaved=   5.
 NSaved= 5 IEnMin= 5 EnMin= -547.893193742778     IErMin= 5 ErrMin= 1.85D-07
 ErrMax= 1.85D-07  0.00D+00 EMaxC= 1.00D-01 BMatC= 1.57D-11 BMatP= 3.74D-09
 IDIUse=1 WtCom= 1.00D+00 WtEn= 0.00D+00
 Coeff-Com: -0.283D-02 0.472D-01 0.154D+00 0.178D+00 0.623D+00
 Coeff:     -0.283D-02 0.472D-01 0.154D+00 0.178D+00 0.623D+00
 Gap=     0.239 Goal=   None    Shift=    0.000
 RMSDP=2.41D-08 MaxDP=1.02D-06 DE=-3.85D-09 OVMax= 2.34D-06

 Cycle  13  Pass 1  IDiag  1:
 RMSU=  2.12D-08    CP:  1.00D+00  8.80D-01  7.58D-01  5.02D-01  8.32D-01
 E= -547.893193742771     Delta-E=        0.000000000006 Rises=F Damp=F
 DIIS: error= 1.18D-07 at cycle   6 NSaved=   6.
 NSaved= 6 IEnMin= 5 EnMin= -547.893193742778     IErMin= 6 ErrMin= 1.18D-07
 ErrMax= 1.18D-07  0.00D+00 EMaxC= 1.00D-01 BMatC= 5.41D-12 BMatP= 1.57D-11
 IDIUse=1 WtCom= 1.00D+00 WtEn= 0.00D+00
 Coeff-Com: -0.827D-03 0.100D-01 0.339D-01 0.410D-01 0.375D+00 0.541D+00
 Coeff:     -0.827D-03 0.100D-01 0.339D-01 0.410D-01 0.375D+00 0.541D+00
 Gap=     0.239 Goal=   None    Shift=    0.000
 RMSDP=1.07D-08 MaxDP=5.18D-07 DE= 6.37D-12 OVMax= 1.16D-06

 Cycle  14  Pass 1  IDiag  1:
 RMSU=  6.65D-09    CP:  1.00D+00  8.81D-01  7.58D-01  4.99D-01  8.92D-01
                    CP:  6.57D-01
 E= -547.893193742792     Delta-E=       -0.000000000021 Rises=F Damp=F
 DIIS: error= 2.03D-08 at cycle   7 NSaved=   7.
 NSaved= 7 IEnMin= 7 EnMin= -547.893193742792     IErMin= 7 ErrMin= 2.03D-08
 ErrMax= 2.03D-08  0.00D+00 EMaxC= 1.00D-01 BMatC= 3.58D-13 BMatP= 5.41D-12
 IDIUse=1 WtCom= 1.00D+00 WtEn= 0.00D+00
 Coeff-Com: -0.106D-03-0.562D-05 0.662D-03 0.146D-02 0.122D+00 0.270D+00
 Coeff-Com:  0.606D+00
 Coeff:     -0.106D-03-0.562D-05 0.662D-03 0.146D-02 0.122D+00 0.270D+00
 Coeff:      0.606D+00
 Gap=     0.239 Goal=   None    Shift=    0.000
 RMSDP=3.05D-09 MaxDP=1.13D-07 DE=-2.07D-11 OVMax= 2.61D-07

 SCF Done:  E(RB3LYP) =  -547.893193743     A.U. after   14 cycles
            NFock= 14  Conv=0.30D-08     -V/T= 2.0107
 KE= 5.421144281256D+02 PE=-3.227184103387D+03 EE= 1.156504105996D+03
 Leave Link  502 at Thu Apr 24 16:45:37 2025, MaxMem=   536870912 cpu:             306.5 elap:              77.1
 (Enter /shared/ucl/apps/gaussian/g16-c01/pgi-18.10/g16/l601.exe)
 Copying SCF densities to generalized density rwf, IOpCl= 0 IROHF=0.

 **********************************************************************

            Population analysis using the SCF Density.

 **********************************************************************

 Orbital symmetries:
       Occupied  (A) (A) (A) (A) (A) (A) (A) (A) (A) (A) (A) (A)
                 (A) (A) (A) (A) (A) (A) (A) (A) (A) (A) (A) (A)
                 (A) (A) (A) (A) (A) (A) (A) (A) (A) (A) (A) (A)
                 (A) (A) (A) (A) (A) (A) (A) (A) (A) (A) (A) (A)
                 (A) (A) (A) (A) (A) (A)
       Virtual   (A) (A) (A) (A) (A) (A) (A) (A) (A) (A) (A) (A)
                 (A) (A) (A) (A) (A) (A) (A) (A) (A) (A) (A) (A)
                 (A) (A) (A) (A) (A) (A) (A) (A) (A) (A) (A) (A)
                 (A) (A) (A) (A) (A) (A) (A) (A) (A) (A) (A) (A)
                 (A) (A) (A) (A) (A) (A) (A) (A) (A) (A) (A) (A)
                 (A) (A) (A) (A) (A) (A) (A) (A) (A) (A) (A) (A)
                 (A) (A) (A) (A) (A) (A) (A) (A) (A) (A) (A) (A)
                 (A) (A) (A) (A) (A) (A) (A) (A) (A) (A) (A) (A)
                 (A) (A) (A) (A) (A) (A) (A) (A) (A) (A) (A) (A)
                 (A) (A) (A) (A) (A) (A) (A) (A) (A) (A) (A) (A)
                 (A) (A) (A) (A) (A) (A) (A) (A) (A) (A) (A) (A)
                 (A) (A) (A) (A) (A) (A) (A) (A) (A) (A) (A) (A)
                 (A) (A) (A) (A) (A) (A) (A) (A) (A) (A) (A) (A)
                 (A) (A) (A) (A) (A) (A) (A) (A) (A) (A) (A) (A)
                 (A) (A) (A) (A) (A) (A) (A) (A) (A) (A) (A) (A)
                 (A) (A) (A) (A) (A) (A) (A) (A) (A) (A) (A) (A)
                 (A) (A) (A) (A) (A) (A) (A) (A) (A) (A) (A) (A)
 The electronic state is 1-A.
 Alpha  occ. eigenvalues --  -10.20157 -10.19640 -10.18635 -10.18535 -10.18071
 Alpha  occ. eigenvalues --  -10.17599 -10.17552 -10.17430 -10.17427 -10.17413
 Alpha  occ. eigenvalues --  -10.17286 -10.17196 -10.17184 -10.16366  -0.84291
 Alpha  occ. eigenvalues --   -0.80585  -0.79079  -0.74758  -0.71306  -0.67946
 Alpha  occ. eigenvalues --   -0.67510  -0.66948  -0.66324  -0.60761  -0.59110
 Alpha  occ. eigenvalues --   -0.54904  -0.52181  -0.48780  -0.46511  -0.46026
 Alpha  occ. eigenvalues --   -0.44453  -0.42978  -0.42379  -0.42313  -0.41588
 Alpha  occ. eigenvalues --   -0.40887  -0.40543  -0.40228  -0.37920  -0.37783
 Alpha  occ. eigenvalues --   -0.37003  -0.36645  -0.35876  -0.35450  -0.34839
 Alpha  occ. eigenvalues --   -0.34184  -0.32859  -0.32556  -0.31443  -0.29820
 Alpha  occ. eigenvalues --   -0.29518  -0.28993  -0.24082  -0.22467
 Alpha virt. eigenvalues --    0.01440   0.02511   0.07624   0.09493   0.10813
 Alpha virt. eigenvalues --    0.11113   0.11497   0.13067   0.13300   0.14272
 Alpha virt. eigenvalues --    0.14723   0.15531   0.15968   0.16392   0.16977
 Alpha virt. eigenvalues --    0.17238   0.18075   0.18147   0.18673   0.19022
 Alpha virt. eigenvalues --    0.19903   0.20249   0.20798   0.21255   0.21986
 Alpha virt. eigenvalues --    0.22449   0.22953   0.24124   0.24604   0.26528
 Alpha virt. eigenvalues --    0.27090   0.28215   0.28389   0.29579   0.30723
 Alpha virt. eigenvalues --    0.32013   0.34513   0.35370   0.39155   0.42757
 Alpha virt. eigenvalues --    0.49205   0.50529   0.50753   0.52382   0.53316
 Alpha virt. eigenvalues --    0.53556   0.54211   0.55038   0.56274   0.57981
 Alpha virt. eigenvalues --    0.59281   0.59976   0.60090   0.62654   0.64723
 Alpha virt. eigenvalues --    0.65584   0.65949   0.67542   0.68268   0.68785
 Alpha virt. eigenvalues --    0.70413   0.70712   0.71991   0.73231   0.73489
 Alpha virt. eigenvalues --    0.75419   0.76543   0.77815   0.78948   0.80133
 Alpha virt. eigenvalues --    0.81487   0.82215   0.83335   0.84458   0.84968
 Alpha virt. eigenvalues --    0.85521   0.86663   0.86918   0.87990   0.88540
 Alpha virt. eigenvalues --    0.89099   0.90124   0.90763   0.91315   0.92244
 Alpha virt. eigenvalues --    0.92251   0.92733   0.93733   0.93992   0.94680
 Alpha virt. eigenvalues --    0.95706   0.95884   0.96461   0.96815   0.97007
 Alpha virt. eigenvalues --    0.98621   0.99565   0.99691   1.01233   1.02337
 Alpha virt. eigenvalues --    1.03803   1.06812   1.09653   1.10321   1.12255
 Alpha virt. eigenvalues --    1.15923   1.16792   1.22359   1.23930   1.25914
 Alpha virt. eigenvalues --    1.29548   1.33222   1.36567   1.38342   1.42578
 Alpha virt. eigenvalues --    1.43660   1.47924   1.51797   1.53092   1.56611
 Alpha virt. eigenvalues --    1.60810   1.64228   1.66682   1.67367   1.70812
 Alpha virt. eigenvalues --    1.72372   1.73521   1.74054   1.76967   1.77682
 Alpha virt. eigenvalues --    1.80381   1.82577   1.84473   1.86031   1.87297
 Alpha virt. eigenvalues --    1.88363   1.89551   1.91056   1.91874   1.92752
 Alpha virt. eigenvalues --    1.95972   1.96498   1.97202   1.99530   2.03403
 Alpha virt. eigenvalues --    2.03623   2.06583   2.07242   2.10222   2.10994
 Alpha virt. eigenvalues --    2.11509   2.13066   2.14339   2.18375   2.18867
 Alpha virt. eigenvalues --    2.20639   2.21179   2.22093   2.22978   2.24901
 Alpha virt. eigenvalues --    2.25117   2.26486   2.26575   2.27608   2.30508
 Alpha virt. eigenvalues --    2.31702   2.34998   2.35242   2.38877   2.39446
 Alpha virt. eigenvalues --    2.42772   2.44423   2.47713   2.49236   2.51423
 Alpha virt. eigenvalues --    2.52757   2.54673   2.59604   2.61501   2.66168
 Alpha virt. eigenvalues --    2.72734   2.73855   2.75492   2.75948   2.78615
 Alpha virt. eigenvalues --    2.82642   2.87284   2.94712   2.99068   3.12653
 Alpha virt. eigenvalues --    4.12504   4.17683   4.19604   4.22977   4.26396
 Alpha virt. eigenvalues --    4.28269   4.32392   4.34370   4.41107   4.48930
 Alpha virt. eigenvalues --    4.55234   4.61582   4.73243   4.79682
          Condensed to atoms (all electrons):
               1          2          3          4          5          6
     1  C    5.186034   0.361658  -0.055424  -0.006637  -0.000235   0.000010
     2  C    0.361658   4.730758   0.376364  -0.039936   0.005806  -0.000224
     3  C   -0.055424   0.376364   4.856654   0.631764  -0.031971   0.005652
     4  C   -0.006637  -0.039936   0.631764   5.082305   0.362348  -0.037929
     5  C   -0.000235   0.005806  -0.031971   0.362348   4.795145   0.364917
     6  C    0.000010  -0.000224   0.005652  -0.037929   0.364917   5.185144
     7  C   -0.000004  -0.000137  -0.006879  -0.059801   0.388973  -0.070462
     8  C    0.000023  -0.000077  -0.006660  -0.051194   0.365097  -0.052314
     9  C   -0.000025  -0.000109  -0.001711  -0.004768  -0.037395   0.004178
    10  C   -0.000093   0.005086  -0.040129  -0.014378  -0.000026  -0.000149
    11  C   -0.000522  -0.051544   0.391368  -0.039545  -0.006087   0.000072
    12  C   -0.000038  -0.005223  -0.054898  -0.002002   0.000312  -0.000004
    13  C    0.001374  -0.012733  -0.049983   0.003162   0.000001  -0.000000
    14  C   -0.074804   0.664882  -0.045580  -0.008163   0.000155  -0.000011
    15  H    0.367084  -0.028759   0.001061   0.000781   0.000003  -0.000001
    16  H    0.360425  -0.032524   0.001140   0.001829  -0.000076   0.000000
    17  H    0.360135  -0.030320   0.003311   0.000187   0.000004  -0.000000
    18  H    0.002100  -0.010300  -0.045738   0.354604  -0.057622  -0.009379
    19  H   -0.000003  -0.000004  -0.000004  -0.003983  -0.029180   0.361275
    20  H    0.000001  -0.000012  -0.000040  -0.005673  -0.029227   0.360683
    21  H   -0.000000   0.000003  -0.000135   0.004287  -0.029260   0.363363
    22  H    0.000000   0.000004   0.000212   0.006047  -0.030415  -0.004526
    23  H    0.000001  -0.000026   0.000012  -0.001588  -0.031100  -0.007582
    24  H   -0.000000  -0.000056   0.002010  -0.005291  -0.027016   0.005870
    25  H   -0.000000   0.000003   0.000121   0.004699  -0.034585   0.000603
    26  H   -0.000001   0.000002  -0.000126   0.000134  -0.038029  -0.010114
    27  H   -0.000001   0.000001   0.000193   0.000408   0.004838  -0.000159
    28  H   -0.000120  -0.000339   0.001322   0.006856  -0.006776   0.000040
    29  H    0.000004  -0.000105   0.003929   0.000080  -0.000045  -0.000001
    30  H   -0.000000  -0.000126  -0.002274   0.001864  -0.003309   0.000017
    31  H    0.000004  -0.000415  -0.002910   0.001630  -0.000267   0.000002
    32  H   -0.000032   0.004411  -0.004765  -0.000089  -0.000008   0.000000
    33  H    0.000007  -0.000009   0.005084   0.000016  -0.000029   0.000000
    34  H   -0.000395  -0.000415  -0.003299   0.000339  -0.000016   0.000000
    35  H   -0.000684   0.009480  -0.008514  -0.000088  -0.000001   0.000000
    36  H    0.000034   0.000201   0.004393  -0.000106  -0.000005  -0.000000
    37  H   -0.009657  -0.033815   0.005092   0.000125   0.000006  -0.000000
    38  H    0.006631  -0.024759  -0.006327   0.001545  -0.000099   0.000001
               7          8          9         10         11         12
     1  C   -0.000004   0.000023  -0.000025  -0.000093  -0.000522  -0.000038
     2  C   -0.000137  -0.000077  -0.000109   0.005086  -0.051544  -0.005223
     3  C   -0.006879  -0.006660  -0.001711  -0.040129   0.391368  -0.054898
     4  C   -0.059801  -0.051194  -0.004768  -0.014378  -0.039545  -0.002002
     5  C    0.388973   0.365097  -0.037395  -0.000026  -0.006087   0.000312
     6  C   -0.070462  -0.052314   0.004178  -0.000149   0.000072  -0.000004
     7  C    5.166904  -0.044337  -0.000489  -0.001714   0.000194  -0.001552
     8  C   -0.044337   5.086016   0.368473  -0.041227  -0.003438  -0.000240
     9  C   -0.000489   0.368473   5.025892   0.350476  -0.030977   0.004748
    10  C   -0.001714  -0.041227   0.350476   5.145451   0.359930  -0.051207
    11  C    0.000194  -0.003438  -0.030977   0.359930   4.806919   0.364860
    12  C   -0.001552  -0.000240   0.004748  -0.051207   0.364860   5.206383
    13  C   -0.000019   0.000231  -0.003590  -0.059114   0.366610  -0.063255
    14  C    0.000039  -0.000010   0.000006   0.000006  -0.001392  -0.001981
    15  H    0.000000   0.000000  -0.000001   0.000005  -0.000022  -0.000005
    16  H    0.000001  -0.000011  -0.000034  -0.000126   0.000493   0.000053
    17  H    0.000000  -0.000000   0.000001   0.000002   0.000040   0.000030
    18  H    0.003512   0.005100  -0.000258  -0.000025   0.005847  -0.000162
    19  H    0.005869  -0.005581  -0.000026   0.000006   0.000002   0.000000
    20  H   -0.005087   0.005412  -0.000175   0.000013   0.000001  -0.000000
    21  H   -0.004085  -0.004457   0.000075  -0.000002  -0.000001   0.000000
    22  H    0.355243  -0.005773  -0.000072   0.000074  -0.000042   0.000011
    23  H    0.364975   0.005046  -0.000120   0.000100   0.000095  -0.000083
    24  H    0.362474  -0.003453   0.000536  -0.001602  -0.000255   0.000001
    25  H   -0.009599   0.358240  -0.033827  -0.007088  -0.000089   0.000029
    26  H    0.005032   0.365304  -0.040135   0.006005  -0.000059   0.000006
    27  H   -0.000111  -0.033378   0.360237  -0.033053   0.004208  -0.000142
    28  H    0.000037  -0.035524   0.375538  -0.045591  -0.005329   0.000448
    29  H    0.000155   0.005043  -0.034021   0.357088  -0.028011  -0.001966
    30  H   -0.001129  -0.006386  -0.042410   0.366031  -0.032990  -0.006351
    31  H   -0.000614   0.000034  -0.000019  -0.004658  -0.030091   0.361249
    32  H    0.000043  -0.000001  -0.000156   0.005372  -0.026428   0.357949
    33  H    0.000025   0.000017   0.000136  -0.005899  -0.030167   0.356597
    34  H    0.000001   0.000043   0.001711  -0.004595  -0.030420   0.005753
    35  H   -0.000000  -0.000003  -0.000021   0.005603  -0.025727  -0.006417
    36  H    0.000001  -0.000001  -0.000056  -0.007403  -0.026289  -0.004412
    37  H   -0.000001   0.000000  -0.000000   0.000004  -0.000056  -0.000016
    38  H    0.000017   0.000001  -0.000000  -0.000040  -0.000462   0.000470
              13         14         15         16         17         18
     1  C    0.001374  -0.074804   0.367084   0.360425   0.360135   0.002100
     2  C   -0.012733   0.664882  -0.028759  -0.032524  -0.030320  -0.010300
     3  C   -0.049983  -0.045580   0.001061   0.001140   0.003311  -0.045738
     4  C    0.003162  -0.008163   0.000781   0.001829   0.000187   0.354604
     5  C    0.000001   0.000155   0.000003  -0.000076   0.000004  -0.057622
     6  C   -0.000000  -0.000011  -0.000001   0.000000  -0.000000  -0.009379
     7  C   -0.000019   0.000039   0.000000   0.000001   0.000000   0.003512
     8  C    0.000231  -0.000010   0.000000  -0.000011  -0.000000   0.005100
     9  C   -0.003590   0.000006  -0.000001  -0.000034   0.000001  -0.000258
    10  C   -0.059114   0.000006   0.000005  -0.000126   0.000002  -0.000025
    11  C    0.366610  -0.001392  -0.000022   0.000493   0.000040   0.005847
    12  C   -0.063255  -0.001981  -0.000005   0.000053   0.000030  -0.000162
    13  C    5.206818  -0.002733   0.000041  -0.000250   0.000036  -0.000141
    14  C   -0.002733   5.118429  -0.007995   0.005359  -0.005478   0.001528
    15  H    0.000041  -0.007995   0.558038  -0.027640  -0.025942  -0.000076
    16  H   -0.000250   0.005359  -0.027640   0.563598  -0.025766   0.000335
    17  H    0.000036  -0.005478  -0.025942  -0.025766   0.564358  -0.000041
    18  H   -0.000141   0.001528  -0.000076   0.000335  -0.000041   0.623283
    19  H   -0.000000   0.000001   0.000001   0.000004   0.000000   0.002348
    20  H    0.000000  -0.000005  -0.000000  -0.000000  -0.000000   0.003869
    21  H   -0.000000   0.000000   0.000000  -0.000000   0.000000   0.000175
    22  H    0.000001  -0.000001  -0.000000  -0.000000  -0.000000  -0.000186
    23  H    0.000001  -0.000003  -0.000000  -0.000000  -0.000000   0.000865
    24  H    0.000011   0.000000  -0.000000   0.000000  -0.000000  -0.000165
    25  H   -0.000011   0.000000   0.000000   0.000000   0.000000  -0.000161
    26  H    0.000002   0.000000  -0.000000   0.000000   0.000000  -0.000068
    27  H   -0.000058   0.000000   0.000000  -0.000001   0.000000   0.000004
    28  H   -0.000058   0.000014  -0.000002   0.000808   0.000001  -0.000065
    29  H   -0.011949  -0.000001  -0.000000   0.000005  -0.000000   0.000006
    30  H    0.005665   0.000000  -0.000000   0.000001  -0.000000  -0.000003
    31  H    0.005834  -0.000161  -0.000000  -0.000001  -0.000001  -0.000045
    32  H   -0.007414   0.004567   0.000007  -0.000010  -0.000027   0.000001
    33  H   -0.003240   0.000031   0.000000  -0.000001  -0.000001   0.000005
    34  H    0.362461   0.000120   0.000015   0.002357   0.000059  -0.000023
    35  H    0.360627   0.001430   0.000112  -0.000464   0.000448   0.000001
    36  H    0.362399   0.000019  -0.000002   0.000010  -0.000001   0.000003
    37  H   -0.000023   0.360006   0.001607   0.000073   0.002374  -0.000158
    38  H    0.000209   0.356930  -0.000134  -0.000228  -0.000072   0.000274
              19         20         21         22         23         24
     1  C   -0.000003   0.000001  -0.000000   0.000000   0.000001  -0.000000
     2  C   -0.000004  -0.000012   0.000003   0.000004  -0.000026  -0.000056
     3  C   -0.000004  -0.000040  -0.000135   0.000212   0.000012   0.002010
     4  C   -0.003983  -0.005673   0.004287   0.006047  -0.001588  -0.005291
     5  C   -0.029180  -0.029227  -0.029260  -0.030415  -0.031100  -0.027016
     6  C    0.361275   0.360683   0.363363  -0.004526  -0.007582   0.005870
     7  C    0.005869  -0.005087  -0.004085   0.355243   0.364975   0.362474
     8  C   -0.005581   0.005412  -0.004457  -0.005773   0.005046  -0.003453
     9  C   -0.000026  -0.000175   0.000075  -0.000072  -0.000120   0.000536
    10  C    0.000006   0.000013  -0.000002   0.000074   0.000100  -0.001602
    11  C    0.000002   0.000001  -0.000001  -0.000042   0.000095  -0.000255
    12  C    0.000000  -0.000000   0.000000   0.000011  -0.000083   0.000001
    13  C   -0.000000   0.000000  -0.000000   0.000001   0.000001   0.000011
    14  C    0.000001  -0.000005   0.000000  -0.000001  -0.000003   0.000000
    15  H    0.000001  -0.000000   0.000000  -0.000000  -0.000000  -0.000000
    16  H    0.000004  -0.000000  -0.000000  -0.000000  -0.000000   0.000000
    17  H    0.000000  -0.000000   0.000000  -0.000000  -0.000000  -0.000000
    18  H    0.002348   0.003869   0.000175  -0.000186   0.000865  -0.000165
    19  H    0.586101  -0.030654  -0.028990  -0.000060   0.000042  -0.000203
    20  H   -0.030654   0.590170  -0.030261  -0.000106   0.005459  -0.000004
    21  H   -0.028990  -0.030261   0.586181   0.003944  -0.000079  -0.000036
    22  H   -0.000060  -0.000106   0.003944   0.597696  -0.029767  -0.029923
    23  H    0.000042   0.005459  -0.000079  -0.029767   0.587495  -0.031736
    24  H   -0.000203  -0.000004  -0.000036  -0.029923  -0.031736   0.565345
    25  H   -0.000059  -0.000254   0.001786   0.005045   0.000145   0.000429
    26  H    0.005303   0.000425   0.000511   0.000102  -0.000170  -0.000095
    27  H   -0.000008   0.000003   0.000002  -0.000014   0.000004  -0.000036
    28  H    0.000074  -0.000007   0.000004  -0.000005   0.000006   0.000019
    29  H    0.000000  -0.000000   0.000000  -0.000009  -0.000003   0.000012
    30  H   -0.000001   0.000002  -0.000002   0.000344   0.000090   0.005002
    31  H   -0.000000  -0.000000  -0.000000   0.000007   0.000257   0.006050
    32  H   -0.000000   0.000000  -0.000000  -0.000000   0.000001  -0.000032
    33  H   -0.000000   0.000000   0.000000   0.000001   0.000002  -0.000028
    34  H   -0.000000   0.000000  -0.000000  -0.000000  -0.000000  -0.000000
    35  H   -0.000000  -0.000000  -0.000000  -0.000000  -0.000000   0.000001
    36  H    0.000000  -0.000000   0.000000  -0.000000  -0.000000  -0.000001
    37  H   -0.000000   0.000000   0.000000   0.000000   0.000000  -0.000000
    38  H   -0.000000   0.000000  -0.000000   0.000000   0.000043  -0.000004
              25         26         27         28         29         30
     1  C   -0.000000  -0.000001  -0.000001  -0.000120   0.000004  -0.000000
     2  C    0.000003   0.000002   0.000001  -0.000339  -0.000105  -0.000126
     3  C    0.000121  -0.000126   0.000193   0.001322   0.003929  -0.002274
     4  C    0.004699   0.000134   0.000408   0.006856   0.000080   0.001864
     5  C   -0.034585  -0.038029   0.004838  -0.006776  -0.000045  -0.003309
     6  C    0.000603  -0.010114  -0.000159   0.000040  -0.000001   0.000017
     7  C   -0.009599   0.005032  -0.000111   0.000037   0.000155  -0.001129
     8  C    0.358240   0.365304  -0.033378  -0.035524   0.005043  -0.006386
     9  C   -0.033827  -0.040135   0.360237   0.375538  -0.034021  -0.042410
    10  C   -0.007088   0.006005  -0.033053  -0.045591   0.357088   0.366031
    11  C   -0.000089  -0.000059   0.004208  -0.005329  -0.028011  -0.032990
    12  C    0.000029   0.000006  -0.000142   0.000448  -0.001966  -0.006351
    13  C   -0.000011   0.000002  -0.000058  -0.000058  -0.011949   0.005665
    14  C    0.000000   0.000000   0.000000   0.000014  -0.000001   0.000000
    15  H    0.000000  -0.000000   0.000000  -0.000002  -0.000000  -0.000000
    16  H    0.000000   0.000000  -0.000001   0.000808   0.000005   0.000001
    17  H    0.000000   0.000000   0.000000   0.000001  -0.000000  -0.000000
    18  H   -0.000161  -0.000068   0.000004  -0.000065   0.000006  -0.000003
    19  H   -0.000059   0.005303  -0.000008   0.000074   0.000000  -0.000001
    20  H   -0.000254   0.000425   0.000003  -0.000007  -0.000000   0.000002
[...]
 002599,0.00002266,0.00004318,0.00001295,0.00002494,0.00000526,0.000134
 49,-0.00010330,0.00012635,-0.00106822,-0.00019711,-0.00028210,0.000021
 04,0.00004848,0.00012525,0.00024848,-0.00017650,0.00014264,0.00074693,
 0.00039132,-0.00089499,0.00021107,-0.00014629,-0.00027113,-0.00017378,
 0.00005766,0.00000535,0.13669571,0.00022634,-0.00025264,-0.00005911,0.
 00017905,0.00015811,-0.00021487,0.00057503,0.00046269,-0.00030542,-0.0
 0009010,0.00028404,0.00005102,-0.00011907,0.00001089,0.00000839,0.0000
 3068,-0.00002711,-0.00002791,0.00005551,-0.00003025,-0.00002014,0.0000
 3061,0.00021810,-0.00002186,0.00000182,-0.00017890,-0.00010652,-0.0004
 3215,0.00018066,0.00052314,0.00167817,-0.00058546,-0.00184241,0.000289
 92,0.00039259,0.00023886,-0.05658016,-0.09124110,0.07657358,-0.0000943
 1,-0.00015617,-0.00002777,-0.00000836,0.00001558,0.00006356,0.00032907
 ,-0.00080187,-0.00012372,-0.00002934,0.00002613,0.00003291,0.00004502,
 -0.00000352,0.00006244,-0.00001070,0.00000212,0.00000114,-0.00000736,-
 0.00002057,-0.00001444,0.00002066,0.00000430,0.00001173,0.00002337,-0.
 00001234,0.00002542,-0.00000422,-0.00000449,-0.00002696,-0.00001439,0.
 00001097,0.00000341,-0.00004827,-0.00006060,-0.00007801,0.00000040,-0.
 00001105,-0.00000208,0.00013087,-0.00004285,0.00005044,-0.00011462,0.0
 0044936,-0.00009797,-0.00018938,-0.00025119,0.00002384,0.00004394,-0.0
 0012359,-0.00018978,-0.00014598,0.00054827,0.00017568,-0.00021422,-0.0
 0010907,0.00001200,0.00013382,0.00053921,-0.00028752,0.06328545,0.0949
 7277,-0.00025436,-0.00003453,-0.00055919,0.00010450,0.00000735,-0.0005
 8444,0.00077259,0.00139074,0.00127456,-0.00037153,-0.00051156,0.000052
 02,0.00009285,-0.00004863,-0.00007736,-0.00003931,0.00001857,0.0000340
 8,0.00005351,0.00012537,0.00000945,0.00010363,-0.00047680,0.00015240,-
 0.00018677,0.00100397,-0.00015842,0.00118387,-0.00038680,0.00046015,0.
 01637735,0.01124198,-0.01970939,-0.00449804,-0.00132212,-0.00511134,0.
 10511270,0.07639626,-0.19060876,-0.00013000,-0.00011692,0.00008332,0.0
 0001427,-0.00001665,0.00007074,0.00027253,-0.00009277,0.00057428,-0.00
 001033,0.00012263,0.00024124,-0.00003793,-0.00002399,-0.00016241,-0.00
 001302,-0.00002689,0.00000910,0.00000300,0.00003273,0.00002248,-0.0000
 0715,-0.00001212,-0.00000611,-0.00004858,-0.00003371,0.00000585,0.0000
 0050,0.00001200,0.00003517,0.00003459,-0.00007618,0.00000054,0.0001561
 0,0.00010310,0.00016651,-0.00004430,0.00000277,-0.00000464,-0.00001146
 ,-0.00018269,0.00016527,-0.00056377,-0.00070035,0.00050531,-0.00022305
 ,0.00016073,0.00009987,0.00005912,-0.00008746,0.00010305,0.00105356,0.
 00117455,-0.00148822,-0.00012475,-0.00017266,0.00032012,-0.00011162,0.
 00010078,0.00031370,-0.11475252,-0.08507226,0.20813916,0.00066549,-0.0
 0007356,-0.00023500,-0.00034318,0.00011926,-0.00034413,-0.00031058,0.0
 0100000,0.00031514,0.00008689,-0.00017553,0.00000047,-0.00005985,0.000
 10460,0.00004183,0.00006468,-0.00002616,-0.00001417,0.00011137,0.00003
 655,-0.00004045,0.00000732,0.00015502,0.00007327,0.00039617,0.00022826
 ,-0.00026566,-0.00056007,-0.00046534,-0.00374166,-0.01402320,0.0073649
 2,0.00183218,0.00040082,-0.00041595,0.00112135,-0.25005928,0.11297307,
 0.01467639,0.00054417,0.00028315,0.00031788,-0.00001255,0.00033066,0.0
 0024079,-0.00026163,-0.00031538,0.00074262,-0.00002015,0.00007564,0.00
 015232,-0.00004644,-0.00012621,-0.00003526,-0.00001925,-0.00000588,0.0
 0001252,-0.00000771,-0.00003416,-0.00003350,0.00002352,0.00000873,0.00
 001314,0.00000134,-0.00002718,0.00002053,-0.00001290,-0.00004258,-0.00
 005189,-0.00004994,-0.00004125,0.00007313,-0.00000730,-0.00006299,-0.0
 0005871,-0.00003975,-0.00007611,-0.00002894,-0.00008845,-0.00004843,0.
 00003769,0.00021933,0.00012348,0.00003828,0.00029681,-0.00022105,0.000
 04783,-0.00105524,0.00054286,0.00003069,0.00016341,-0.00022071,-0.0000
 7838,0.00067857,0.00018928,-0.00034564,0.00002958,-0.00005533,-0.00005
 730,-0.01455173,0.00862630,0.00082744,0.27031897,-0.00052740,-0.001279
 11,-0.00015780,-0.00037333,-0.00083902,-0.00085857,-0.00050122,0.00020
 791,0.00027540,0.00009292,0.00005548,0.00000087,-0.00002681,-0.0000025
 9,-0.00000372,0.00001207,-0.00002255,0.00000259,0.00002075,0.00000306,
 0.00000576,0.00001551,0.00020243,-0.00011695,0.00009548,-0.00009602,0.
 00011600,0.00008104,-0.00044466,0.00005190,-0.00231739,-0.00004543,0.0
 0028950,0.00054859,-0.00031760,-0.00019192,0.11464680,-0.11407923,-0.0
 0802541,-0.00007942,-0.00047825,-0.00032307,0.00006915,-0.00002611,-0.
 00000235,-0.00032109,-0.00084080,0.00008286,0.00001269,-0.00002982,0.0
 0001786,-0.00000350,0.00001899,-0.00003039,-0.00000555,-0.00000004,-0.
 00000028,-0.00000506,0.00000039,-0.00000256,0.00001652,0.00000408,0.00
 000528,0.00001108,-0.00001482,0.00001652,0.00000409,0.00001419,-0.0000
 0431,0.00001234,0.00000659,-0.00001046,-0.00004199,-0.00005201,-0.0000
 3497,0.00004303,0.00002442,0.00001799,-0.00001336,-0.00000071,-0.00000
 451,0.00018296,0.00018252,-0.00006162,-0.00005073,0.00075134,0.0003398
 9,0.00020022,0.00044543,0.00014200,-0.00027566,0.00002018,0.00000765,-
 0.00015704,0.00024763,0.00047431,0.00012905,-0.00003611,0.00002393,-0.
 01322197,0.00716663,0.00029333,-0.12613588,0.12357308,-0.00001325,-0.0
 0033406,0.00031494,-0.00065281,-0.00106033,0.00027037,0.00017339,0.000
 69952,0.00097772,0.00004778,-0.00005311,-0.00000118,0.00002561,0.00007
 858,0.00000759,0.00003415,-0.00002205,0.00001537,0.00009589,0.00004010
 ,-0.00003122,0.00001804,-0.00007570,0.00017028,0.00014093,0.00052166,-
 0.00031329,-0.00219151,-0.00027871,-0.00552748,-0.02440037,0.01511712,
 0.00260756,-0.00103352,0.00008754,0.00173071,0.01634554,-0.00848304,-0
 .05012473,0.00057482,0.00000055,-0.00039721,-0.00003223,0.00000594,-0.
 00019405,0.00020599,0.00028930,-0.00026472,0.00000094,-0.00006208,-0.0
 0002728,0.00000348,-0.00004878,-0.00005240,-0.00001235,-0.00000865,0.0
 0000356,-0.00000483,-0.00000718,-0.00000927,0.00001616,0.00000624,0.00
 000631,0.00000309,-0.00002023,0.00001252,-0.00001941,-0.00003814,-0.00
 002527,-0.00003494,-0.00001666,0.00008175,0.00007733,0.00001831,0.0000
 5877,-0.00003149,-0.00005982,-0.00003122,-0.00013458,-0.00006647,0.000
 06588,-0.00007342,-0.00035498,0.00020798,0.00017468,0.00006152,-0.0001
 0543,-0.00179241,0.00090679,0.00016618,0.00015632,-0.00027815,0.000238
 90,0.00055553,0.00012222,-0.00050523,0.00005414,0.00002271,-0.00010864
 ,0.02054450,-0.01341978,-0.00111252,-0.01521105,0.00960332,0.05315774,
 0.00029514,0.00007033,0.00008524,-0.00038315,0.00033440,0.00006434,-0.
 00192660,0.00105225,-0.00306074,0.00062450,-0.00081447,-0.00004537,0.0
 0022346,0.00002431,-0.00009580,-0.00003181,0.00005983,0.00000951,-0.00
 014499,0.00000247,0.00005391,-0.00004112,0.00009930,-0.00018365,-0.000
 17732,-0.00017142,0.00022955,0.00024524,-0.00225481,-0.00071176,-0.004
 79782,-0.01514368,-0.00456520,0.00034896,0.00007014,0.00117065,-0.0584
 8143,-0.04802217,-0.01009144,0.00036509,0.00010608,0.00004949,0.000002
 82,0.00015617,0.00006123,-0.00016306,-0.00008382,0.00021605,0.00001320
 ,-0.00001314,0.00000939,-0.00027339,-0.00025160,0.00027350,0.00002180,
 0.00000510,-0.00000321,0.00000870,0.00000997,0.00001369,-0.00003954,-0
 .00000345,-0.00001564,-0.00001333,0.00005101,-0.00005397,0.00000963,0.
 00000578,0.00003173,0.00002794,0.00002414,-0.00002167,-0.00006013,0.00
 001189,-0.00000573,0.00002973,0.00003485,0.00004492,-0.00010385,0.0000
 6116,-0.00001174,0.00012304,0.00010250,-0.00016659,-0.00070589,0.00093
 729,-0.00007833,0.00020037,0.00017279,0.00025646,-0.00022017,0.0000773
 7,0.00017313,0.00002801,0.00021160,-0.00000626,0.00043923,0.00026892,-
 0.00003433,-0.00366759,-0.01759277,-0.00478758,0.00753147,0.02784864,0
 .00641121,0.06069299,-0.00006579,0.00006033,0.00030342,-0.00021899,0.0
 0007884,0.00031865,-0.00036451,0.00102244,-0.00061952,0.00042261,-0.00
 020289,-0.00012656,0.00013996,-0.00002815,-0.00004230,-0.00005031,0.00
 006046,0.00000027,-0.00016357,-0.00003580,0.00004974,0.00005378,0.0000
 8066,-0.00016488,0.00003741,-0.00014370,0.00032238,0.00094089,0.000096
 06,0.00056418,0.00030044,-0.00267587,0.00014417,0.00026864,0.00034260,
 0.00087963,-0.04883360,-0.28691775,-0.05712759,-0.00008964,-0.00000262
 ,0.00000108,0.00000584,-0.00009986,-0.00011414,0.00000140,0.00003822,-
 0.00048294,0.00002482,-0.00011291,-0.00011671,-0.00014383,-0.00001511,
 0.00005047,0.00002441,0.00000623,-0.00000233,0.00001144,0.00000903,0.0
 0001321,-0.00004427,-0.00000846,-0.00001705,-0.00002782,0.00004025,-0.
 00005647,0.00002154,0.00000685,0.00002340,0.00003487,0.00002781,0.0000
 0384,-0.00004488,0.00001725,0.00000182,0.00004759,0.00002126,0.0000276
 8,-0.00009311,0.00005832,-0.00004152,0.00003664,0.00005030,-0.00016094
 ,-0.00002308,0.00088380,0.00046258,-0.00001212,0.00046518,0.00019286,0
 .00011137,0.00038053,0.00001567,-0.00005923,-0.00013712,-0.00010096,0.
 00022151,0.00063719,-0.00025283,-0.00152737,-0.01152480,-0.00279474,-0
 .00356505,-0.01435894,-0.00287968,0.05259570,0.31188831,-0.00007100,0.
 00009265,-0.00041481,-0.00037948,0.00053413,-0.00023231,-0.00367616,0.
 00125670,-0.00490759,0.00063486,-0.00164463,-0.00013313,0.00030791,-0.
 00002666,-0.00014078,-0.00007998,0.00010649,-0.00001267,-0.00016695,-0
 .00001259,0.00007160,0.00007735,-0.00009252,-0.00014073,0.00006455,0.0
 0028777,0.00000412,0.00116376,-0.00128903,0.00028070,-0.00575052,-0.02
 747490,-0.00863622,-0.00017214,-0.00172813,0.00109411,-0.01023161,-0.0
 5541286,-0.06125509,0.00010128,-0.00011108,0.00015141,0.00003599,0.000
 06142,0.00004269,0.00009340,-0.00005225,0.00036651,0.00001735,0.000078
 17,0.00018029,-0.00051780,-0.00037835,0.00035699,0.00002967,0.00000599
 ,-0.00000459,0.00001527,0.00001300,0.00002498,-0.00006532,-0.00001482,
 -0.00002201,-0.00002917,0.00006522,-0.00007029,0.00001076,0.00000087,0
 .00003427,0.00002202,0.00002874,-0.00001424,-0.00002165,0.00003919,0.0
 0005074,0.00001110,0.00003276,0.00003869,0.00002028,-0.00001728,0.0000
 5230,0.00001113,-0.00008797,0.00003335,-0.00025229,0.00070177,0.000556
 20,0.00031085,0.00011101,0.00016030,0.00005408,0.00026071,0.00049525,0
 .00015615,-0.00001062,-0.00011986,0.00009384,0.00089816,-0.00043117,0.
 00349079,0.02406778,0.00660843,-0.00010962,-0.00203387,-0.00122427,0.0
 1479656,0.06179000,0.06720942,-0.00205222,-0.00245402,-0.00377518,-0.0
 1445888,0.01580313,-0.00329098,0.00182192,0.00337446,0.00529388,0.0009
 4179,0.00013150,0.00045281,0.00021087,0.00002758,-0.00010372,-0.000017
 01,0.00007387,0.00000050,-0.00016198,-0.00000495,0.00004417,0.00001154
 ,-0.00004106,-0.00005441,0.00005077,0.00000791,-0.00004809,0.00022998,
 0.00037902,0.00010840,-0.00152073,0.00017307,-0.00005552,0.00003888,-0
 .00011090,0.00000586,-0.00010017,0.00000140,-0.00016746,-0.21039926,0.
 14417360,-0.01449854,0.00008842,-0.00027357,0.00079476,0.00058864,0.00
 014168,-0.00063630,0.00054674,-0.00067209,0.00082232,0.00007128,-0.000
 22378,-0.00002571,0.00001123,0.00000179,0.00001139,0.00001003,-0.00000
 385,-0.00001040,-0.00003437,-0.00000860,-0.00001280,-0.00003488,0.0000
 5395,-0.00006344,0.00001169,-0.00001704,0.00001460,0.00000487,-0.00000
 920,0.00001543,-0.00002770,0.00003054,0.00001257,-0.00002460,-0.000009
 00,0.00002028,-0.00002109,0.00001838,0.00001193,0.00001229,-0.00002832
 ,-0.00003116,-0.00012121,0.00014286,0.00002383,-0.00002011,0.00001412,
 -0.00000983,-0.00003149,0.00001269,-0.00000221,0.00007017,0.00004884,0
 .00002602,0.00005349,0.00001949,-0.00003779,-0.00002990,0.00000437,0.0
 0004370,0.00004558,0.00000175,-0.00002228,0.00001138,0.00001105,0.0000
 5021,0.22243385,-0.00420198,-0.00385685,-0.00206617,0.00264042,0.00043
 811,0.00197830,0.00329521,0.00750192,0.00236662,0.00149418,-0.00080096
 ,-0.00029017,-0.00014903,0.00009640,0.00057684,0.00003448,-0.00007998,
 0.00002106,0.00018446,-0.00000183,-0.00002051,-0.00008034,0.00005254,0
 .00003376,0.00004076,-0.00000168,-0.00002651,0.00013345,0.00031537,0.0
 0001399,-0.00125152,0.00042450,0.00021676,-0.00018415,-0.00029230,-0.0
 0010612,0.00005353,-0.00008714,-0.00007230,0.14628877,-0.15943782,0.02
 658317,-0.00026843,-0.00018032,0.00101567,0.00030270,0.00048461,-0.000
 74741,-0.00014341,0.00067332,-0.00018963,0.00023009,-0.00000668,-0.000
 27287,-0.00001037,0.00001433,-0.00001237,-0.00000577,-0.00000034,-0.00
 000310,0.00004161,0.00002286,0.00000604,0.00002398,-0.00004397,0.00005
 461,-0.00001674,-0.00000597,-0.00001350,-0.00001943,0.00000257,0.00000
 851,0.00001066,-0.00001629,-0.00000274,0.00000742,-0.00000244,-0.00001
 776,0.00000529,-0.00002434,-0.00001120,0.00000303,-0.00000893,0.000011
 57,-0.00008934,0.00003815,-0.00001470,-0.00003340,0.00003495,-0.000005
 71,-0.00010721,0.00010807,-0.00003808,0.00031227,-0.00001587,0.0001383
 8,0.00014285,-0.00011157,-0.00008013,-0.00003005,0.00001751,0.00000715
 ,-0.00000667,0.00001605,-0.00002623,-0.00004257,-0.00001303,-0.0000134
 0,-0.16005133,0.16186807,-0.00094960,-0.00414441,-0.00071766,0.0187854
 2,-0.01493664,0.00445491,0.00379315,0.00463466,-0.00045468,0.00144230,
 -0.00091293,0.00020186,-0.00016213,0.00010807,0.00060295,0.00003212,-0
 .00008112,0.00003006,0.00022709,-0.00000417,-0.00003761,-0.00007709,0.
 00003984,0.00004072,0.00001179,0.00003276,-0.00000386,0.00002059,0.000
 02983,0.00002667,-0.00042313,0.00030744,0.00006900,0.00018805,0.000006
 26,-0.00009761,-0.00000988,-0.00005965,0.00002409,-0.01832973,0.028716
 22,-0.05629808,-0.00018912,-0.00020070,0.00060101,0.00024307,0.0003259
 3,-0.00040944,-0.00016350,0.00051847,-0.00030325,0.00020184,0.00010280
 ,-0.00033486,-0.00001399,0.00000572,-0.00000316,-0.00000102,0.00000536
 ,-0.00000444,0.00003383,0.00002212,0.00000384,-0.00000597,-0.00005762,
 0.00008181,0.00001431,0.00002523,0.00001516,-0.00000237,-0.00004203,-0
 .00000364,0.00001238,-0.00001640,-0.00000865,-0.00000238,-0.00000700,-
 0.00000821,-0.00001394,-0.00002263,-0.00000049,-0.00000114,-0.00000807
 ,0.00001283,-0.00002151,-0.00000778,-0.00001372,0.00000424,0.00000829,
 0.00000196,0.00010575,-0.00008065,0.00006239,-0.00018240,-0.00005253,-
 0.00007807,-0.00009081,0.00002811,0.00011539,0.00000446,0.00000167,0.0
 0004416,-0.00002499,0.00001715,-0.00001958,-0.00003505,-0.00000707,-0.
 00003425,0.01422492,-0.02897092,0.05170531,0.00132318,0.00618297,0.005
 13678,0.00324003,-0.01294511,0.01997776,-0.00005326,-0.00359462,-0.001
 27413,-0.00071247,0.00021312,-0.00044114,-0.00007277,-0.00006745,-0.00
 010185,-0.00001138,0.00000810,0.00000417,-0.00002151,0.00002756,0.0000
 4767,0.00001896,0.00001877,0.00002102,0.00000056,0.00000120,0.00002472
 ,-0.00013042,-0.00017035,-0.00003848,0.00047820,0.00007479,0.00011248,
 0.00028744,0.00013818,0.00031980,0.00010916,-0.00007999,0.00006499,-0.
 05150415,0.01865674,-0.00700947,0.00013329,0.00017778,-0.00090381,-0.0
 0022889,-0.00137583,0.00166800,0.00020923,-0.00028698,0.00000845,-0.00
 015194,-0.00007596,0.00014929,-0.00000052,0.00000243,-0.00000647,-0.00
 000809,-0.00001418,-0.00001192,0.00001033,-0.00001100,-0.00000064,0.00
 003949,-0.00000993,-0.00001811,-0.00002202,-0.00002679,-0.00005261,-0.
 00001175,0.00002613,0.00000446,0.00000696,-0.00000915,-0.00000669,0.00
 001051,-0.00000201,-0.00001770,0.00000083,-0.00001001,-0.00000611,-0.0
 0000230,0.00001391,0.00000593,0.00004494,-0.00005781,-0.00002027,-0.00
 000478,0.00001762,0.00000051,-0.00010809,0.00017847,-0.00011720,0.0000
 1405,-0.00010076,-0.00011050,-0.00011357,-0.00000434,-0.00003660,0.000
 01522,-0.00001499,-0.00004973,-0.00005628,0.00001270,0.00000090,-0.000
 01150,0.00001525,-0.00004548,0.00179022,0.01144657,-0.01864560,0.04549
 307,0.00539871,0.00703394,0.00421033,0.00044341,0.00461743,-0.00283591
 ,-0.00178415,-0.00344851,-0.00255950,-0.00100024,0.00042998,-0.0002042
 2,-0.00000802,-0.00012767,-0.00014237,-0.00003574,0.00006029,0.0000187
 9,-0.00006914,0.00005924,0.00007212,0.00001971,-0.00000134,-0.00000081
 ,-0.00000985,0.00001104,0.00001421,-0.00011331,-0.00021040,-0.00001498
 ,0.00080946,0.00015967,-0.00019734,-0.00025024,-0.00069218,-0.00031873
 ,0.00006931,-0.00007533,0.00008361,0.01632466,-0.13138599,0.13965057,-
 0.00012357,0.00092449,-0.00182749,-0.00061984,-0.00103769,0.00142344,-
 0.00021062,0.00017825,-0.00036013,-0.00018781,-0.00009558,0.00006740,0
 .00000348,-0.00000365,-0.00000136,-0.00000565,-0.00002085,-0.00002082,
 -0.00001008,-0.00002292,-0.00001051,0.00000191,0.00000137,-0.00003751,
 -0.00000926,-0.00001957,-0.00004090,0.00000993,-0.00001380,0.00000147,
 -0.00000489,0.00000421,-0.00000261,-0.00000271,-0.00000574,-0.00000402
 ,-0.00001643,-0.00000305,0.00000418,-0.00000423,0.00000925,0.00000160,
 0.00003597,-0.00006137,-0.00000060,0.00001078,0.00000189,0.00000124,0.
 00003781,-0.00008304,0.00005049,0.00036904,-0.00126984,-0.00055236,0.0
 0002835,-0.00005477,0.00005344,0.00001803,-0.00002238,-0.00000419,-0.0
 0002038,0.00002343,0.00001243,-0.00000007,0.00000507,-0.00003156,-0.00
 073933,-0.00712101,0.01467641,-0.01835501,0.13225713,0.00583157,0.0024
 4654,0.00200222,-0.00275771,0.01398656,-0.01538301,-0.00284205,-0.0019
 9384,-0.00053882,-0.00003692,0.00008090,0.00045553,0.00006070,0.000045
 92,-0.00023635,0.00000872,0.00002285,-0.00000484,-0.00003175,0.0000320
 7,0.00000075,0.00002292,-0.00001719,0.00001152,-0.00004624,0.00007025,
 0.00000122,-0.00019967,-0.00032140,0.00004700,0.00090887,0.00001072,-0
 .00043180,0.00081207,0.00032406,0.00024514,-0.00002524,-0.00007017,0.0
 0002017,-0.00311070,0.13679557,-0.25028469,0.00021827,0.00075215,-0.00
 182393,0.00004066,-0.00018853,0.00017532,-0.00008956,-0.00031812,0.000
 35593,-0.00010092,-0.00003186,0.00000204,-0.00001101,-0.00001364,0.000
 01612,0.00000043,-0.00000113,-0.00000698,-0.00000158,-0.00000726,0.000
 00444,-0.00001763,-0.00000071,-0.00000754,0.00001222,0.00000421,0.0000
 0961,0.00001038,-0.00003437,0.00000294,0.00000555,-0.00000432,-0.00000
 184,-0.00002153,-0.00000989,0.00000542,-0.00002610,-0.00001240,0.00001
 608,-0.00000601,-0.00000498,0.00001882,0.00006756,-0.00006744,-0.00001
 583,0.00004569,-0.00002414,0.00001965,0.00011422,-0.00011458,0.0000603
 7,-0.00069661,-0.00035679,-0.00028478,-0.00040880,0.00019224,0.0002320
 3,-0.00005002,0.00001153,0.00009186,0.00006088,0.00007867,-0.00001915,
 0.00002351,-0.00005681,-0.00001833,0.00086824,-0.00003091,0.00073716,0
 .00136756,-0.15117378,0.26452656\\-0.00000244,-0.00000812,0.00000250,-
 0.00000672,0.00000293,0.00000283,0.00000443,0.00000257,-0.00000379,-0.
 00000259,-0.00000268,-0.00000259,0.00000300,-0.00000072,-0.00000035,0.
 00000078,0.00000156,-0.00000051,0.00000004,0.00000141,0.00000252,0.000
 00027,-0.00000003,0.00000216,0.00000033,-0.00000202,-0.00000126,-0.000
 00153,-0.00000033,0.00000271,0.00000060,-0.00000309,-0.00000091,-0.000
 00048,0.00000166,0.00000212,-0.00000348,0.00000027,0.00000040,0.000000
 09,-0.00000167,0.00000046,0.00000227,0.00000001,-0.00000222,0.00000300
 ,0.00000053,0.00000135,0.00000103,0.00000196,-0.00000189,0.00000160,0.
 00000032,-0.00000133,0.00000020,-0.00000137,-0.00000141,0.00000056,-0.
 00000030,-0.00000140,0.00000009,0.00000002,-0.00000163,0.00000018,0.00
 000121,-0.00000079,0.00000059,0.00000077,0.00000006,0.00000101,0.00000
 233,0.00000087,0.00000007,0.00000024,-0.00000056,-0.00000072,-0.000000
 66,-0.00000097,-0.00000119,-0.00000115,0.00000073,0.00000040,-0.000001
 40,0.00000046,-0.00000148,0.00000009,0.00000104,-0.00000157,0.00000023
 ,-0.00000098,0.00000100,0.00000110,0.00000066,-0.00000017,0.00000208,0
 .00000081,0.00000076,0.00000208,0.00000046,-0.00000129,-0.00000136,0.0
 0000053,-0.00000019,0.00000023,0.00000068,-0.00000018,-0.00000049,0.00
 000076,0.00000068,0.00000068,-0.00000131,0.00000107,0.00000112,-0.0000
 0019\\\@
 The archive entry for this job was punched.


 The theorems and results in mathematical physics are
 not theorems and results about Nature, but about our
 description of it.
                   --Gerard 't Hooft
 Job cpu time:       0 days  1 hours 11 minutes 30.6 seconds.
 Elapsed time:       0 days  0 hours 17 minutes 58.7 seconds.
 File lengths (MBytes):  RWF=    293 Int=      0 D2E=      0 Chk=     12 Scr=      1
 Normal termination of Gaussian 16 at Thu Apr 24 17:27:00 2025.
